 Gaussian 16, Revision A.03,
 Gaussian 16:  ES64L-G16RevA.03 25-Dec-2016

 -----------------------------------------------------
 # opt=modredundant MP2/6-31g(d) Geom=PrintInputOrient
 -----------------------------------------------------

 ---------------------------
 PRLD Dihedral/Improper Scan
 ---------------------------
 Symbolic Z-matrix:
 Charge =  0 Multiplicity = 1

 SCF Done:  E(RHF) =  -211.143200098     A.U. after   12 cycles
 E2 =    -0.6841488883D+00 EUMP2 =    -0.21182734898599D+03
 SCF Done:  E(RHF) =  -211.143210229     A.U. after    7 cycles
 E2 =    -0.6841411923D+00 EUMP2 =    -0.21182735142158D+03
 Optimization completed.
    -- Stationary point found.
 SCF Done:  E(RHF) =  -211.131978337     A.U. after   11 cycles
 E2 =    -0.6845346415D+00 EUMP2 =    -0.21181651297898D+03
 SCF Done:  E(RHF) =  -211.139667198     A.U. after   11 cycles
 E2 =    -0.6845132556D+00 EUMP2 =    -0.21182418045402D+03
 SCF Done:  E(RHF) =  -211.142832938     A.U. after   10 cycles
 E2 =    -0.6840359096D+00 EUMP2 =    -0.21182686884770D+03
 SCF Done:  E(RHF) =  -211.143239423     A.U. after   10 cycles
 E2 =    -0.6840603198D+00 EUMP2 =    -0.21182729974256D+03
 SCF Done:  E(RHF) =  -211.143146773     A.U. after    9 cycles
 E2 =    -0.6841881216D+00 EUMP2 =    -0.21182733489500D+03
 SCF Done:  E(RHF) =  -211.143100769     A.U. after    9 cycles
 E2 =    -0.6842379830D+00 EUMP2 =    -0.21182733875250D+03
 SCF Done:  E(RHF) =  -211.143087998     A.U. after    8 cycles
 E2 =    -0.6842510840D+00 EUMP2 =    -0.21182733908146D+03
 Optimization completed.
 SCF Done:  E(RHF) =  -211.132789653     A.U. after   11 cycles
 E2 =    -0.6849291769D+00 EUMP2 =    -0.21181771883016D+03
 E2 =    -0.6845656632D+00 EUMP2 =    -0.21182502865763D+03
 E2 =    -0.6842018333D+00 EUMP2 =    -0.21182698907175D+03
 E2 =    -0.6842326188D+00 EUMP2 =    -0.21182701893966D+03
 E2 =    -0.6842398507D+00 EUMP2 =    -0.21182702166599D+03
 E2 =    -0.6842465286D+00 EUMP2 =    -0.21182702187310D+03
 E2 =    -0.6853721081D+00 EUMP2 =    -0.21181696274413D+03
 E2 =    -0.6848910327D+00 EUMP2 =    -0.21182454980527D+03
 E2 =    -0.6840852285D+00 EUMP2 =    -0.21182633431737D+03
 E2 =    -0.6839291288D+00 EUMP2 =    -0.21182637054440D+03
 E2 =    -0.6838761735D+00 EUMP2 =    -0.21182637347297D+03
 E2 =    -0.6856095025D+00 EUMP2 =    -0.21181485982465D+03
 E2 =    -0.6848751731D+00 EUMP2 =    -0.21182325437175D+03
 E2 =    -0.6838642606D+00 EUMP2 =    -0.21182560965655D+03
 E2 =    -0.6834230791D+00 EUMP2 =    -0.21182586772067D+03
 E2 =    -0.6831944924D+00 EUMP2 =    -0.21182593438180D+03
 E2 =    -0.6831256360D+00 EUMP2 =    -0.21182594137653D+03
 E2 =    -0.6831096348D+00 EUMP2 =    -0.21182594183437D+03
 E2 =    -0.6855408205D+00 EUMP2 =    -0.21181296028855D+03
 E2 =    -0.6851875252D+00 EUMP2 =    -0.21182168997462D+03
 E2 =    -0.6842999332D+00 EUMP2 =    -0.21182419198432D+03
 SCF Done:  E(RHF) =  -211.140897769     A.U. after   11 cycles
 E2 =    -0.6839914496D+00 EUMP2 =    -0.21182488921888D+03
 SCF Done:  E(RHF) =  -211.141104234     A.U. after   10 cycles
 E2 =    -0.6839965898D+00 EUMP2 =    -0.21182510082369D+03
 SCF Done:  E(RHF) =  -211.141041355     A.U. after   10 cycles
 E2 =    -0.6840930807D+00 EUMP2 =    -0.21182513443560D+03
 SCF Done:  E(RHF) =  -211.141056787     A.U. after    9 cycles
 E2 =    -0.6840803468D+00 EUMP2 =    -0.21182513713346D+03
    -- Stationary point found.
 SCF Done:  E(RHF) =  -211.115191113     A.U. after   11 cycles
 E2 =    -0.6880351893D+00 EUMP2 =    -0.21180322630237D+03
 SCF Done:  E(RHF) =  -211.122608544     A.U. after   11 cycles
 E2 =    -0.6878042315D+00 EUMP2 =    -0.21181041277578D+03
 SCF Done:  E(RHF) =  -211.123501516     A.U. after   11 cycles
 E2 =    -0.6876602321D+00 EUMP2 =    -0.21181116174774D+03
 SCF Done:  E(RHF) =  -211.123336427     A.U. after   10 cycles
 E2 =    -0.6877195752D+00 EUMP2 =    -0.21181105600196D+03
 SCF Done:  E(RHF) =  -211.123630576     A.U. after   10 cycles
 E2 =    -0.6875629195D+00 EUMP2 =    -0.21181119349542D+03
 SCF Done:  E(RHF) =  -211.123587715     A.U. after    9 cycles
 E2 =    -0.6876220557D+00 EUMP2 =    -0.21181120977075D+03
 Optimization completed.
    -- Stationary point found.

                         Standard orientation:
 ---------------------------------------------------------------------
 Center     Atomic      Atomic             Coordinates (Angstroms)
 Number     Number       Type             X           Y           Z
 ---------------------------------------------------------------------
      1          7           0        1.208856    0.157577    0.317579
      2          1           0        2.080219    0.425871   -0.146086
      3          6           0        0.166698    1.229338    0.018408
      4          1           0        0.436416    1.829151   -0.861150
      5          1           0        0.088876    1.905363    0.875089
      6          6           0       -1.181503    0.444677   -0.212501
      7          1           0       -1.424198    0.343462   -1.271863
      8          1           0       -2.019869    0.933315    0.293061
      9          6           0       -0.755504   -0.895665    0.375409
     10          1           0       -1.454141   -1.708879    0.145894
     11          1           0       -0.576214   -0.853883    1.449325
     12          6           0        0.574403   -0.979339   -0.362949
     13          1           0        0.440245   -0.874383   -1.449825
     14          1           0        1.142110   -1.897127   -0.167695
 ---------------------------------------------------------------------

 The electronic state is 1-A.
 Alpha  occ. eigenvalues --  -15.54390 -11.24648 -11.24054 -11.22162 -11.21256
 Alpha  occ. eigenvalues --   -1.21330  -1.02534  -0.95645  -0.80142  -0.78711
 Alpha  occ. eigenvalues --   -0.68162  -0.65490  -0.57935  -0.55393  -0.51408
 Alpha  occ. eigenvalues --   -0.49385  -0.47922  -0.46765  -0.45320  -0.37337
 Alpha virt. eigenvalues --    0.22594   0.26275   0.27384   0.29569   0.30911
 Alpha virt. eigenvalues --    0.32543   0.33199   0.34083   0.36887   0.38459
 Alpha virt. eigenvalues --    0.39211   0.41198   0.43887   0.47466   0.72123

 Mulliken charges:
               1
     1  N   -0.689538
     2  H    0.331867
     3  C   -0.143641
     4  H    0.149416
     5  H    0.171206
     6  C   -0.356241
     7  H    0.167663
     8  H    0.171123
     9  C   -0.312619
    10  H    0.157640
    11  H    0.195292
    12  C   -0.151897
    13  H    0.143049
    14  H    0.166679
 Sum of Mulliken charges =  -0.00000

 Dipole moment (field-independent basis, Debye):
    X=             -0.2904    Y=              0.2657    Z=             -1.3667  Tot=              1.4223
 Quadrupole moment (field-independent basis, Debye-Ang):
   XX=            -32.0672   YY=            -31.9406   ZZ=            -33.4407
   XY=              0.3139   XZ=             -2.3879   YZ=              0.0436

 Normal termination of Gaussian 16 at Fri Apr  2 19:15:31 2021.
