 Gaussian 16, Revision A.03,
 Gaussian 16:  ES64L-G16RevA.03 25-Dec-2016

 -----------------------------------------------------
 # opt=modredundant MP2/6-31g(d) Geom=PrintInputOrient
 -----------------------------------------------------

 ---------------------------
 PRLD Dihedral/Improper Scan
 ---------------------------
 Symbolic Z-matrix:
 Charge =  0 Multiplicity = 1

 SCF Done:  E(RHF) =  -211.143200098     A.U. after   12 cycles
 E2 =    -0.6841488883D+00 EUMP2 =    -0.21182734898599D+03
 SCF Done:  E(RHF) =  -211.143210626     A.U. after    8 cycles
 E2 =    -0.6841407905D+00 EUMP2 =    -0.21182735141689D+03
 Optimization completed.
    -- Stationary point found.
 SCF Done:  E(RHF) =  -211.131049789     A.U. after   11 cycles
 E2 =    -0.6854272968D+00 EUMP2 =    -0.21181647708587D+03
 SCF Done:  E(RHF) =  -211.139292997     A.U. after   11 cycles
 E2 =    -0.6849209616D+00 EUMP2 =    -0.21182421395865D+03
 SCF Done:  E(RHF) =  -211.142731474     A.U. after   11 cycles
 E2 =    -0.6844356024D+00 EUMP2 =    -0.21182716707630D+03
 SCF Done:  E(RHF) =  -211.142959380     A.U. after   10 cycles
 E2 =    -0.6843708500D+00 EUMP2 =    -0.21182733022986D+03
 SCF Done:  E(RHF) =  -211.143040543     A.U. after    9 cycles
 E2 =    -0.6843011390D+00 EUMP2 =    -0.21182734168166D+03
 SCF Done:  E(RHF) =  -211.143069468     A.U. after    8 cycles
 E2 =    -0.6842736818D+00 EUMP2 =    -0.21182734314961D+03
 SCF Done:  E(RHF) =  -211.143081426     A.U. after    8 cycles
 E2 =    -0.6842618564D+00 EUMP2 =    -0.21182734328248D+03
 Optimization completed.
 SCF Done:  E(RHF) =  -211.129364050     A.U. after   11 cycles
 E2 =    -0.6857537173D+00 EUMP2 =    -0.21181511776776D+03
 E2 =    -0.6853606676D+00 EUMP2 =    -0.21182367726589D+03
 E2 =    -0.6847541441D+00 EUMP2 =    -0.21182658493012D+03
 E2 =    -0.6843719764D+00 EUMP2 =    -0.21182687856540D+03
 E2 =    -0.6843047687D+00 EUMP2 =    -0.21182690654604D+03
 E2 =    -0.6842892169D+00 EUMP2 =    -0.21182690907621D+03
 E2 =    -0.6862537221D+00 EUMP2 =    -0.21181160627987D+03
 E2 =    -0.6857261334D+00 EUMP2 =    -0.21182101566534D+03
 E2 =    -0.6849379753D+00 EUMP2 =    -0.21182445674774D+03
 E2 =    -0.6844136568D+00 EUMP2 =    -0.21182515145631D+03
 E2 =    -0.6839846828D+00 EUMP2 =    -0.21182546339264D+03
 E2 =    -0.6835062403D+00 EUMP2 =    -0.21182562401315D+03
 E2 =    -0.6872141040D+00 EUMP2 =    -0.21180619771862D+03
 E2 =    -0.6863419418D+00 EUMP2 =    -0.21181419108422D+03
 E2 =    -0.6859971272D+00 EUMP2 =    -0.21181542231481D+03
 E2 =    -0.6860532361D+00 EUMP2 =    -0.21181545114616D+03
 E2 =    -0.6861567184D+00 EUMP2 =    -0.21181515691463D+03
 E2 =    -0.6860637640D+00 EUMP2 =    -0.21181546043427D+03
 E2 =    -0.6860729845D+00 EUMP2 =    -0.21181546254503D+03
 E2 =    -0.6917367693D+00 EUMP2 =    -0.21177640657639D+03
 E2 =    -0.6915208906D+00 EUMP2 =    -0.21178311140298D+03
 SCF Done:  E(RHF) =  -211.092293801     A.U. after   11 cycles
 E2 =    -0.6915507152D+00 EUMP2 =    -0.21178384451666D+03
 SCF Done:  E(RHF) =  -211.092283065     A.U. after    9 cycles
 E2 =    -0.6915618907D+00 EUMP2 =    -0.21178384495596D+03
 SCF Done:  E(RHF) =  -211.092305480     A.U. after    9 cycles
 E2 =    -0.6915503490D+00 EUMP2 =    -0.21178385582904D+03
 SCF Done:  E(RHF) =  -211.092304600     A.U. after    8 cycles
 E2 =    -0.6915520407D+00 EUMP2 =    -0.21178385664030D+03
    -- Stationary point found.
 SCF Done:  E(RHF) =  -211.019867729     A.U. after   12 cycles
 E2 =    -0.6998772824D+00 EUMP2 =    -0.21171974501109D+03
 SCF Done:  E(RHF) =  -211.027867709     A.U. after   11 cycles
 E2 =    -0.7005497890D+00 EUMP2 =    -0.21172841749825D+03
 SCF Done:  E(RHF) =  -211.027887843     A.U. after   11 cycles
 E2 =    -0.7016838698D+00 EUMP2 =    -0.21172957171242D+03
 SCF Done:  E(RHF) =  -211.027970568     A.U. after   10 cycles
 E2 =    -0.7016355528D+00 EUMP2 =    -0.21172960612103D+03
 SCF Done:  E(RHF) =  -211.027948143     A.U. after    9 cycles
 E2 =    -0.7016613364D+00 EUMP2 =    -0.21172960947931D+03
 SCF Done:  E(RHF) =  -211.027935576     A.U. after    8 cycles
 E2 =    -0.7016743833D+00 EUMP2 =    -0.21172960995952D+03
 Optimization completed.
    -- Stationary point found.

                         Standard orientation:
 ---------------------------------------------------------------------
 Center     Atomic      Atomic             Coordinates (Angstroms)
 Number     Number       Type             X           Y           Z
 ---------------------------------------------------------------------
      1          7           0        0.006716   -1.224851    0.130366
      2          1           0       -0.192868   -1.809666   -0.689753
      3          6           0        1.325765   -0.246105   -0.196059
      4          1           0        1.562235   -0.067548   -1.243121
      5          1           0        2.149628   -0.736198    0.327459
      6          6           0        0.581437    0.834982    0.502050
      7          1           0        1.111079    1.799884    0.542938
      8          1           0        0.292399    0.552305    1.506919
      9          6           0       -0.562895    0.817139   -0.546252
     10          1           0       -0.275727    0.487414   -1.537979
     11          1           0       -1.065961    1.795906   -0.642150
     12          6           0       -1.327761   -0.199218    0.216770
     13          1           0       -2.147520   -0.727694   -0.280768
     14          1           0       -1.579551    0.038761    1.244842
 ---------------------------------------------------------------------

 The electronic state is 1-A.
 Alpha  occ. eigenvalues --  -15.54451 -11.25668 -11.25333 -11.22286 -11.21905
 Alpha  occ. eigenvalues --   -1.17950  -0.99864  -0.96942  -0.81615  -0.79895
 Alpha  occ. eigenvalues --   -0.66320  -0.64127  -0.59348  -0.55209  -0.53366
 Alpha  occ. eigenvalues --   -0.48987  -0.47328  -0.43794  -0.43583  -0.35466
 Alpha virt. eigenvalues --    0.23159   0.24021   0.25792   0.27782   0.30268
 Alpha virt. eigenvalues --    0.30983   0.32587   0.34484   0.35447   0.36328
 Alpha virt. eigenvalues --    0.37628   0.39307   0.45087   0.45980   0.70890

 Mulliken charges:
               1
     1  N   -0.738489
     2  H    0.317752
     3  C   -0.164425
     4  H    0.169883
     5  H    0.182975
     6  C   -0.333607
     7  H    0.154696
     8  H    0.211446
     9  C   -0.316696
    10  H    0.182825
    11  H    0.148149
    12  C   -0.169433
    13  H    0.166391
    14  H    0.188531
 Sum of Mulliken charges =  -0.00000

 Dipole moment (field-independent basis, Debye):
    X=             -0.2988    Y=              1.1710    Z=             -1.2768  Tot=              1.7581
 Quadrupole moment (field-independent basis, Debye-Ang):
   XX=            -30.9098   YY=            -35.9659   ZZ=            -31.3601
   XY=              0.5845   XZ=             -0.8277   YZ=              3.0043

 Normal termination of Gaussian 16 at Fri Apr  2 19:18:30 2021.
