 Gaussian 16, Revision A.03,
 Gaussian 16:  ES64L-G16RevA.03 25-Dec-2016

 -----------------------------------------------------
 # opt=modredundant MP2/6-31g(d) Geom=PrintInputOrient
 -----------------------------------------------------

 ---------------------------
 PRLD Dihedral/Improper Scan
 ---------------------------
 Symbolic Z-matrix:
 Charge =  0 Multiplicity = 1

 SCF Done:  E(RHF) =  -211.143200098     A.U. after   12 cycles
 E2 =    -0.6841488883D+00 EUMP2 =    -0.21182734898599D+03
 SCF Done:  E(RHF) =  -211.143210626     A.U. after    8 cycles
 E2 =    -0.6841407905D+00 EUMP2 =    -0.21182735141689D+03
 Optimization completed.
    -- Stationary point found.
 SCF Done:  E(RHF) =  -211.131043946     A.U. after   11 cycles
 E2 =    -0.6854279064D+00 EUMP2 =    -0.21181647185270D+03
 SCF Done:  E(RHF) =  -211.139279939     A.U. after   11 cycles
 E2 =    -0.6849299897D+00 EUMP2 =    -0.21182420992868D+03
 SCF Done:  E(RHF) =  -211.142722792     A.U. after   11 cycles
 E2 =    -0.6844389057D+00 EUMP2 =    -0.21182716169739D+03
 SCF Done:  E(RHF) =  -211.142948232     A.U. after   10 cycles
 E2 =    -0.6843806987D+00 EUMP2 =    -0.21182732893084D+03
 SCF Done:  E(RHF) =  -211.143037496     A.U. after    9 cycles
 E2 =    -0.6843037244D+00 EUMP2 =    -0.21182734122049D+03
 SCF Done:  E(RHF) =  -211.143068351     A.U. after    8 cycles
 E2 =    -0.6842745398D+00 EUMP2 =    -0.21182734289096D+03
 SCF Done:  E(RHF) =  -211.143080578     A.U. after    8 cycles
 E2 =    -0.6842624636D+00 EUMP2 =    -0.21182734304132D+03
 Optimization completed.
 SCF Done:  E(RHF) =  -211.129357625     A.U. after   11 cycles
 E2 =    -0.6857547009D+00 EUMP2 =    -0.21181511232587D+03
 E2 =    -0.6853507435D+00 EUMP2 =    -0.21182367779408D+03
 E2 =    -0.6847464670D+00 EUMP2 =    -0.21182657774572D+03
 E2 =    -0.6843772821D+00 EUMP2 =    -0.21182687332319D+03
 E2 =    -0.6843030426D+00 EUMP2 =    -0.21182690412721D+03
 E2 =    -0.6842887484D+00 EUMP2 =    -0.21182690701456D+03
 E2 =    -0.6862545592D+00 EUMP2 =    -0.21181159620132D+03
 E2 =    -0.6857276802D+00 EUMP2 =    -0.21182100573579D+03
 E2 =    -0.6849357374D+00 EUMP2 =    -0.21182444904964D+03
 E2 =    -0.6844292448D+00 EUMP2 =    -0.21182513346331D+03
 E2 =    -0.6840132281D+00 EUMP2 =    -0.21182543861887D+03
 E2 =    -0.6863825024D+00 EUMP2 =    -0.21181411878627D+03
 E2 =    -0.6860152643D+00 EUMP2 =    -0.21181537615272D+03
 E2 =    -0.6860526309D+00 EUMP2 =    -0.21181541089736D+03
 E2 =    -0.6861466890D+00 EUMP2 =    -0.21181526742313D+03
 E2 =    -0.6860898224D+00 EUMP2 =    -0.21181539832702D+03
 E2 =    -0.6860664699D+00 EUMP2 =    -0.21181541308973D+03
 E2 =    -0.6860810932D+00 EUMP2 =    -0.21181541663814D+03
 E2 =    -0.6860810159D+00 EUMP2 =    -0.21181541781945D+03
 E2 =    -0.6917516417D+00 EUMP2 =    -0.21177630383020D+03
 E2 =    -0.6915481982D+00 EUMP2 =    -0.21178298906561D+03
 SCF Done:  E(RHF) =  -211.092191405     A.U. after   11 cycles
 E2 =    -0.6915487131D+00 EUMP2 =    -0.21178374011780D+03
 SCF Done:  E(RHF) =  -211.092162324     A.U. after    9 cycles
 E2 =    -0.6915756986D+00 EUMP2 =    -0.21178373802213D+03
 SCF Done:  E(RHF) =  -211.092176812     A.U. after    9 cycles
 E2 =    -0.6915748734D+00 EUMP2 =    -0.21178375168491D+03
 SCF Done:  E(RHF) =  -211.092183803     A.U. after    8 cycles
 E2 =    -0.6915694874D+00 EUMP2 =    -0.21178375329015D+03
    -- Stationary point found.
 SCF Done:  E(RHF) =  -211.019685302     A.U. after   12 cycles
 E2 =    -0.6999012895D+00 EUMP2 =    -0.21171958659157D+03
 SCF Done:  E(RHF) =  -211.027663810     A.U. after   11 cycles
 E2 =    -0.7006163061D+00 EUMP2 =    -0.21172828011576D+03
 SCF Done:  E(RHF) =  -211.027676763     A.U. after   11 cycles
 E2 =    -0.7017555060D+00 EUMP2 =    -0.21172943226856D+03
 SCF Done:  E(RHF) =  -211.027789404     A.U. after   10 cycles
 E2 =    -0.7016711021D+00 EUMP2 =    -0.21172946050619D+03
 SCF Done:  E(RHF) =  -211.027769914     A.U. after    9 cycles
 E2 =    -0.7016927660D+00 EUMP2 =    -0.21172946268016D+03
 SCF Done:  E(RHF) =  -211.027757368     A.U. after    8 cycles
 E2 =    -0.7017057630D+00 EUMP2 =    -0.21172946313076D+03
 Optimization completed.
    -- Stationary point found.

                         Standard orientation:
 ---------------------------------------------------------------------
 Center     Atomic      Atomic             Coordinates (Angstroms)
 Number     Number       Type             X           Y           Z
 ---------------------------------------------------------------------
      1          7           0       -0.006848   -1.224975    0.130357
      2          1           0        0.192812   -1.809440   -0.690023
      3          6           0        1.327935   -0.199096    0.216749
      4          1           0        2.147639   -0.727659   -0.280721
      5          1           0        1.579457    0.038765    1.244917
      6          6           0        0.562840    0.816971   -0.546369
      7          1           0        0.275705    0.487069   -1.538021
      8          1           0        1.065772    1.795820   -0.642485
      9          6           0       -0.581237    0.834859    0.502177
     10          1           0       -1.110619    1.799916    0.543415
     11          1           0       -0.292099    0.551879    1.506907
     12          6           0       -1.325958   -0.245826   -0.196040
     13          1           0       -1.562409   -0.067075   -1.243082
     14          1           0       -2.149807   -0.735899    0.327490
 ---------------------------------------------------------------------

 The electronic state is 1-A.
 Alpha  occ. eigenvalues --  -15.54454 -11.25671 -11.25334 -11.22287 -11.21906
 Alpha  occ. eigenvalues --   -1.17946  -0.99861  -0.96942  -0.81618  -0.79897
 Alpha  occ. eigenvalues --   -0.66318  -0.64126  -0.59352  -0.55210  -0.53371
 Alpha  occ. eigenvalues --   -0.48982  -0.47326  -0.43786  -0.43581  -0.35465
 Alpha virt. eigenvalues --    0.23157   0.24015   0.25791   0.27779   0.30265
 Alpha virt. eigenvalues --    0.30980   0.32585   0.34476   0.35446   0.36327
 Alpha virt. eigenvalues --    0.37625   0.39307   0.45090   0.45976   0.70888

 Mulliken charges:
               1
     1  N   -0.738465
     2  H    0.317725
     3  C   -0.169551
     4  H    0.166418
     5  H    0.188573
     6  C   -0.316662
     7  H    0.182848
     8  H    0.148132
     9  C   -0.333558
    10  H    0.154674
    11  H    0.211473
    12  C   -0.164503
    13  H    0.169906
    14  H    0.182992
 Sum of Mulliken charges =  -0.00000

 Dipole moment (field-independent basis, Debye):
    X=              0.2991    Y=              1.1720    Z=             -1.2769  Tot=              1.7589
 Quadrupole moment (field-independent basis, Debye-Ang):
   XX=            -30.9090   YY=            -35.9701   ZZ=            -31.3586
   XY=             -0.5852   XZ=              0.8282   YZ=              3.0041

 Normal termination of Gaussian 16 at Fri Apr  2 19:19:25 2021.
