 Gaussian 16, Revision A.03,
 Gaussian 16:  ES64L-G16RevA.03 25-Dec-2016

 -----------------------------------------------------
 # opt=modredundant MP2/6-31g(d) Geom=PrintInputOrient
 -----------------------------------------------------

 ---------------------------
 PRLD Dihedral/Improper Scan
 ---------------------------
 Symbolic Z-matrix:
 Charge =  0 Multiplicity = 1

 SCF Done:  E(RHF) =  -211.143200098     A.U. after   12 cycles
 E2 =    -0.6841488883D+00 EUMP2 =    -0.21182734898599D+03
 SCF Done:  E(RHF) =  -211.143210240     A.U. after    7 cycles
 E2 =    -0.6841411809D+00 EUMP2 =    -0.21182735142103D+03
 Optimization completed.
    -- Stationary point found.
 SCF Done:  E(RHF) =  -211.128711926     A.U. after   11 cycles
 E2 =    -0.6864056722D+00 EUMP2 =    -0.21181511759779D+03
 SCF Done:  E(RHF) =  -211.137718473     A.U. after   11 cycles
 E2 =    -0.6850321667D+00 EUMP2 =    -0.21182275063962D+03
 SCF Done:  E(RHF) =  -211.141076042     A.U. after   11 cycles
 E2 =    -0.6849029605D+00 EUMP2 =    -0.21182597900282D+03
 SCF Done:  E(RHF) =  -211.142071809     A.U. after   11 cycles
 E2 =    -0.6848390776D+00 EUMP2 =    -0.21182691088654D+03
 SCF Done:  E(RHF) =  -211.142507198     A.U. after   10 cycles
 E2 =    -0.6846647379D+00 EUMP2 =    -0.21182717193620D+03
 SCF Done:  E(RHF) =  -211.142792236     A.U. after   10 cycles
 E2 =    -0.6844590297D+00 EUMP2 =    -0.21182725126584D+03
 SCF Done:  E(RHF) =  -211.142855497     A.U. after    9 cycles
 E2 =    -0.6844023991D+00 EUMP2 =    -0.21182725789588D+03
 SCF Done:  E(RHF) =  -211.142870814     A.U. after    8 cycles
 E2 =    -0.6843875629D+00 EUMP2 =    -0.21182725837721D+03
 Optimization completed.
 E2 =    -0.6870845394D+00 EUMP2 =    -0.21181210234651D+03
 E2 =    -0.6859405967D+00 EUMP2 =    -0.21182040264238D+03
 E2 =    -0.6857102463D+00 EUMP2 =    -0.21182271428079D+03
 E2 =    -0.6856385677D+00 EUMP2 =    -0.21182294723943D+03
 E2 =    -0.6857043607D+00 EUMP2 =    -0.21182296905978D+03
 E2 =    -0.6857324224D+00 EUMP2 =    -0.21182297163998D+03
 E2 =    -0.6895747785D+00 EUMP2 =    -0.21179532162805D+03
 E2 =    -0.6890972645D+00 EUMP2 =    -0.21180232117926D+03
 E2 =    -0.6890664576D+00 EUMP2 =    -0.21180299922460D+03
 E2 =    -0.6890473919D+00 EUMP2 =    -0.21180301136215D+03
    -- Stationary point found.
 E2 =    -0.7149320328D+00 EUMP2 =    -0.21162337240736D+03
 E2 =    -0.7165521289D+00 EUMP2 =    -0.21162873836396D+03
 E2 =    -0.7347969962D+00 EUMP2 =    -0.21164555458605D+03
 E2 =    -0.7404540468D+00 EUMP2 =    -0.21165607838489D+03
 E2 =    -0.7546710356D+00 EUMP2 =    -0.21167304307586D+03
 E2 =    -0.7487422508D+00 EUMP2 =    -0.21166763522419D+03
 E2 =    -0.7628895229D+00 EUMP2 =    -0.21168062995828D+03
 E2 =    -0.7656224646D+00 EUMP2 =    -0.21168262303708D+03
 E2 =    -0.7706941030D+00 EUMP2 =    -0.21168473859187D+03
 E2 =    -0.7733873553D+00 EUMP2 =    -0.21168538847477D+03
 SCF Done:  E(RHF) =  -210.910837198     A.U. after   14 cycles
 E2 =    -0.7751244486D+00 EUMP2 =    -0.21168596164668D+03
 SCF Done:  E(RHF) =  -210.910677830     A.U. after   13 cycles
 E2 =    -0.7755472690D+00 EUMP2 =    -0.21168622509858D+03
 SCF Done:  E(RHF) =  -210.911034638     A.U. after   13 cycles
 E2 =    -0.7753005993D+00 EUMP2 =    -0.21168633523699D+03
 SCF Done:  E(RHF) =  -210.912551805     A.U. after   13 cycles
 E2 =    -0.7738967964D+00 EUMP2 =    -0.21168644860115D+03
 SCF Done:  E(RHF) =  -210.913161669     A.U. after   13 cycles
 E2 =    -0.7733166761D+00 EUMP2 =    -0.21168647834523D+03
 SCF Done:  E(RHF) =  -210.913839077     A.U. after   12 cycles
 E2 =    -0.7726750878D+00 EUMP2 =    -0.21168651416527D+03
 SCF Done:  E(RHF) =  -210.913941624     A.U. after   12 cycles
 E2 =    -0.7725869888D+00 EUMP2 =    -0.21168652861301D+03
 SCF Done:  E(RHF) =  -210.913883080     A.U. after   11 cycles
 E2 =    -0.7726501574D+00 EUMP2 =    -0.21168653323784D+03
 SCF Done:  E(RHF) =  -210.913784608     A.U. after   11 cycles
 E2 =    -0.7727507570D+00 EUMP2 =    -0.21168653536517D+03
 SCF Done:  E(RHF) =  -210.913818343     A.U. after   10 cycles
 E2 =    -0.7727173016D+00 EUMP2 =    -0.21168653564435D+03
 Optimization completed.
    -- Stationary point found.

                         Standard orientation:
 ---------------------------------------------------------------------
 Center     Atomic      Atomic             Coordinates (Angstroms)
 Number     Number       Type             X           Y           Z
 ---------------------------------------------------------------------
      1          7           0        1.320312    0.476064   -0.046128
      2          1           0        1.475240    0.932135   -0.945474
      3          6           0        0.021123    0.774222    0.487836
      4          1           0       -0.039130    1.848757    0.690494
      5          1           0       -0.077798    0.248183    1.441423
      6          6           0       -1.158822    0.355030   -0.491822
      7          1           0       -0.711072    0.053656   -1.443433
      8          1           0       -1.783992    1.238538   -0.662140
      9          6           0       -1.960416   -0.738412    0.074754
     10          1           0       -1.693654   -1.770140   -0.147661
     11          1           0       -2.539359   -0.564476    0.979308
     12          6           0        1.728591   -0.879738   -0.053228
     13          1           0        2.630738   -1.056919   -0.636728
     14          1           0        1.713993   -1.328791    0.941865
 ---------------------------------------------------------------------

 The electronic state is 1-A.
 Alpha  occ. eigenvalues --  -15.62616 -11.27800 -11.26465 -11.22400 -11.19937
 Alpha  occ. eigenvalues --   -1.25045  -1.03098  -0.92909  -0.84617  -0.78591
 Alpha  occ. eigenvalues --   -0.69176  -0.62969  -0.60835  -0.56512  -0.55532
 Alpha  occ. eigenvalues --   -0.54412  -0.49383  -0.47189  -0.43031  -0.17645
 Alpha virt. eigenvalues --    0.02567   0.21670   0.26514   0.27007   0.27935
 Alpha virt. eigenvalues --    0.30119   0.31962   0.33557   0.34097   0.37032
 Alpha virt. eigenvalues --    0.40481   0.41736   0.46683   0.50225   0.71637

 Mulliken charges:
               1
     1  N   -0.590770
     2  H    0.376687
     3  C   -0.124426
     4  H    0.174951
     5  H    0.192882
     6  C   -0.335133
     7  H    0.164105
     8  H    0.168123
     9  C   -0.458736
    10  H    0.164432
    11  H    0.150512
    12  C   -0.254736
    13  H    0.183259
    14  H    0.188851
 Sum of Mulliken charges =  -0.00000

 Dipole moment (field-independent basis, Debye):
    X=              2.2725    Y=              1.3858    Z=             -0.1692  Tot=              2.6671
 Quadrupole moment (field-independent basis, Debye-Ang):
   XX=            -36.5360   YY=            -32.7536   ZZ=            -31.7389
   XY=             -2.3496   XZ=             -3.4909   YZ=             -1.9255

 Normal termination of Gaussian 16 at Fri Apr  2 19:24:35 2021.
