 Gaussian 16, Revision A.03,
 Gaussian 16:  ES64L-G16RevA.03 25-Dec-2016

 -----------------------------------------------------
 # opt=modredundant MP2/6-31g(d) Geom=PrintInputOrient
 -----------------------------------------------------

 ---------------------------
 PRLD Dihedral/Improper Scan
 ---------------------------
 Symbolic Z-matrix:
 Charge =  0 Multiplicity = 1

 SCF Done:  E(RHF) =  -211.143200098     A.U. after   12 cycles
 E2 =    -0.6841488883D+00 EUMP2 =    -0.21182734898599D+03
 SCF Done:  E(RHF) =  -211.143210240     A.U. after    7 cycles
 E2 =    -0.6841411809D+00 EUMP2 =    -0.21182735142103D+03
 Optimization completed.
    -- Stationary point found.
 SCF Done:  E(RHF) =  -211.131971900     A.U. after   11 cycles
 E2 =    -0.6845342746D+00 EUMP2 =    -0.21181650617506D+03
 SCF Done:  E(RHF) =  -211.139649789     A.U. after   11 cycles
 E2 =    -0.6845287747D+00 EUMP2 =    -0.21182417856360D+03
 SCF Done:  E(RHF) =  -211.142835340     A.U. after   10 cycles
 E2 =    -0.6840288954D+00 EUMP2 =    -0.21182686423501D+03
 SCF Done:  E(RHF) =  -211.143240556     A.U. after   10 cycles
 E2 =    -0.6840583503D+00 EUMP2 =    -0.21182729890584D+03
 SCF Done:  E(RHF) =  -211.143148325     A.U. after    9 cycles
 E2 =    -0.6841865424D+00 EUMP2 =    -0.21182733486714D+03
 SCF Done:  E(RHF) =  -211.143100982     A.U. after    9 cycles
 E2 =    -0.6842379351D+00 EUMP2 =    -0.21182733891735D+03
 Optimization completed.
 SCF Done:  E(RHF) =  -211.132787236     A.U. after   11 cycles
 E2 =    -0.6849243461D+00 EUMP2 =    -0.21181771158252D+03
 SCF Done:  E(RHF) =  -211.140718197     A.U. after   11 cycles
 E2 =    -0.6844797539D+00 EUMP2 =    -0.21182519795086D+03
 E2 =    -0.6842514935D+00 EUMP2 =    -0.21182700110525D+03
 E2 =    -0.6842342974D+00 EUMP2 =    -0.21182702092087D+03
 E2 =    -0.6842417639D+00 EUMP2 =    -0.21182702265152D+03
 E2 =    -0.6853707808D+00 EUMP2 =    -0.21181696463430D+03
 E2 =    -0.6847951041D+00 EUMP2 =    -0.21182455326127D+03
 E2 =    -0.6841192133D+00 EUMP2 =    -0.21182631609971D+03
 E2 =    -0.6839706447D+00 EUMP2 =    -0.21182636700644D+03
 E2 =    -0.6838925680D+00 EUMP2 =    -0.21182637425961D+03
 E2 =    -0.6856102423D+00 EUMP2 =    -0.21181486967177D+03
 E2 =    -0.6848163154D+00 EUMP2 =    -0.21182325628090D+03
 E2 =    -0.6838118390D+00 EUMP2 =    -0.21182563115266D+03
 E2 =    -0.6833782122D+00 EUMP2 =    -0.21182587433652D+03
 E2 =    -0.6831833260D+00 EUMP2 =    -0.21182593611280D+03
 E2 =    -0.6831336969D+00 EUMP2 =    -0.21182594121660D+03
 E2 =    -0.6831155198D+00 EUMP2 =    -0.21182594182341D+03
 E2 =    -0.6855421783D+00 EUMP2 =    -0.21181295861933D+03
 E2 =    -0.6852075666D+00 EUMP2 =    -0.21182164823054D+03
 E2 =    -0.6843474376D+00 EUMP2 =    -0.21182418737444D+03
 SCF Done:  E(RHF) =  -211.140906825     A.U. after   11 cycles
 E2 =    -0.6839802746D+00 EUMP2 =    -0.21182488709956D+03
 SCF Done:  E(RHF) =  -211.141116340     A.U. after   10 cycles
 E2 =    -0.6839944037D+00 EUMP2 =    -0.21182511074392D+03
 SCF Done:  E(RHF) =  -211.141079235     A.U. after   10 cycles
 E2 =    -0.6840653801D+00 EUMP2 =    -0.21182514461471D+03
    -- Stationary point found.
 SCF Done:  E(RHF) =  -211.115214454     A.U. after   11 cycles
 E2 =    -0.6880366478D+00 EUMP2 =    -0.21180325110223D+03
 SCF Done:  E(RHF) =  -211.122697430     A.U. after   11 cycles
 E2 =    -0.6877418881D+00 EUMP2 =    -0.21181043931799D+03
 SCF Done:  E(RHF) =  -211.123490371     A.U. after   11 cycles
 E2 =    -0.6877122978D+00 EUMP2 =    -0.21181120266883D+03
 SCF Done:  E(RHF) =  -211.123514972     A.U. after   10 cycles
 E2 =    -0.6876651849D+00 EUMP2 =    -0.21181118015674D+03
 SCF Done:  E(RHF) =  -211.123707556     A.U. after   10 cycles
 E2 =    -0.6875173026D+00 EUMP2 =    -0.21181122485871D+03
 SCF Done:  E(RHF) =  -211.123639873     A.U. after    9 cycles
 E2 =    -0.6876094150D+00 EUMP2 =    -0.21181124928806D+03
 SCF Done:  E(RHF) =  -211.123639664     A.U. after    7 cycles
 E2 =    -0.6876105663D+00 EUMP2 =    -0.21181125023045D+03
 Optimization completed.
    -- Stationary point found.

                         Standard orientation:
 ---------------------------------------------------------------------
 Center     Atomic      Atomic             Coordinates (Angstroms)
 Number     Number       Type             X           Y           Z
 ---------------------------------------------------------------------
      1          7           0       -1.209014    0.156633    0.317187
      2          1           0       -2.080729    0.424026   -0.146310
      3          6           0       -0.573475   -0.980033   -0.362671
      4          1           0       -0.439444   -0.875635   -1.449652
      5          1           0       -1.140426   -1.898163   -0.166855
      6          6           0        0.756397   -0.894932    0.375418
      7          1           0        1.455765   -1.707466    0.145661
      8          1           0        0.577352   -0.853419    1.449395
      9          6           0        1.180902    0.445682   -0.212661
     10          1           0        1.423236    0.344660   -1.272125
     11          1           0        2.019014    0.935117    0.292520
     12          6           0       -0.167759    1.229300    0.018597
     13          1           0       -0.437664    1.829406   -0.860672
     14          1           0       -0.090398    1.904947    0.875633
 ---------------------------------------------------------------------

 The electronic state is 1-A.
 Alpha  occ. eigenvalues --  -15.54387 -11.24646 -11.24054 -11.22160 -11.21255
 Alpha  occ. eigenvalues --   -1.21329  -1.02536  -0.95648  -0.80140  -0.78711
 Alpha  occ. eigenvalues --   -0.68163  -0.65492  -0.57936  -0.55392  -0.51410
 Alpha  occ. eigenvalues --   -0.49387  -0.47924  -0.46766  -0.45323  -0.37330
 Alpha virt. eigenvalues --    0.22595   0.26276   0.27384   0.29569   0.30912
 Alpha virt. eigenvalues --    0.32543   0.33201   0.34083   0.36887   0.38460
 Alpha virt. eigenvalues --    0.39212   0.41200   0.43892   0.47468   0.72125

 Mulliken charges:
               1
     1  N   -0.689682
     2  H    0.331899
     3  C   -0.151770
     4  H    0.143012
     5  H    0.166671
     6  C   -0.312615
     7  H    0.157641
     8  H    0.195254
     9  C   -0.356273
    10  H    0.167658
    11  H    0.171120
    12  C   -0.143502
    13  H    0.149407
    14  H    0.171178
 Sum of Mulliken charges =  -0.00000

 Dipole moment (field-independent basis, Debye):
    X=              0.2901    Y=              0.2655    Z=             -1.3659  Tot=              1.4214
 Quadrupole moment (field-independent basis, Debye-Ang):
   XX=            -32.0659   YY=            -31.9407   ZZ=            -33.4398
   XY=             -0.3138   XZ=              2.3869   YZ=              0.0450

 Normal termination of Gaussian 16 at Fri Apr  2 19:43:44 2021.
