 Gaussian 16, Revision A.03,
 Gaussian 16:  ES64L-G16RevA.03 25-Dec-2016

 -----------------------------------------------------
 # opt=modredundant MP2/6-31g(d) Geom=PrintInputOrient
 -----------------------------------------------------

 ---------------------------
 PRLD Dihedral/Improper Scan
 ---------------------------
 Symbolic Z-matrix:
 Charge =  0 Multiplicity = 1

 SCF Done:  E(RHF) =  -211.143200098     A.U. after   12 cycles
 E2 =    -0.6841488883D+00 EUMP2 =    -0.21182734898599D+03
 SCF Done:  E(RHF) =  -211.143210229     A.U. after    7 cycles
 E2 =    -0.6841411923D+00 EUMP2 =    -0.21182735142158D+03
 Optimization completed.
    -- Stationary point found.
 SCF Done:  E(RHF) =  -211.128713444     A.U. after   11 cycles
 E2 =    -0.6864049003D+00 EUMP2 =    -0.21181511834415D+03
 SCF Done:  E(RHF) =  -211.137741648     A.U. after   11 cycles
 E2 =    -0.6850466534D+00 EUMP2 =    -0.21182278830169D+03
 SCF Done:  E(RHF) =  -211.141085188     A.U. after   11 cycles
 E2 =    -0.6849063046D+00 EUMP2 =    -0.21182599149256D+03
 SCF Done:  E(RHF) =  -211.142082423     A.U. after   11 cycles
 E2 =    -0.6848307890D+00 EUMP2 =    -0.21182691321220D+03
 SCF Done:  E(RHF) =  -211.142510336     A.U. after   10 cycles
 E2 =    -0.6846633677D+00 EUMP2 =    -0.21182717370386D+03
 SCF Done:  E(RHF) =  -211.142796004     A.U. after   10 cycles
 E2 =    -0.6844564799D+00 EUMP2 =    -0.21182725248414D+03
 SCF Done:  E(RHF) =  -211.142858142     A.U. after    9 cycles
 E2 =    -0.6844007684D+00 EUMP2 =    -0.21182725890990D+03
 SCF Done:  E(RHF) =  -211.142872722     A.U. after    8 cycles
 E2 =    -0.6843866435D+00 EUMP2 =    -0.21182725936566D+03
 Optimization completed.
 E2 =    -0.6870829539D+00 EUMP2 =    -0.21181211183103D+03
 E2 =    -0.6859508175D+00 EUMP2 =    -0.21182041451746D+03
 E2 =    -0.6857034422D+00 EUMP2 =    -0.21182272906730D+03
 E2 =    -0.6856335920D+00 EUMP2 =    -0.21182296382466D+03
 E2 =    -0.6856983380D+00 EUMP2 =    -0.21182298626071D+03
 E2 =    -0.6857293115D+00 EUMP2 =    -0.21182298886752D+03
 E2 =    -0.6895681264D+00 EUMP2 =    -0.21179537038407D+03
 E2 =    -0.6890882592D+00 EUMP2 =    -0.21180237217516D+03
 E2 =    -0.6890628952D+00 EUMP2 =    -0.21180304966680D+03
 E2 =    -0.6890481883D+00 EUMP2 =    -0.21180305901064D+03
    -- Stationary point found.
 E2 =    -0.7164858973D+00 EUMP2 =    -0.21162867483768D+03
 E2 =    -0.7344297090D+00 EUMP2 =    -0.21164541073861D+03
 E2 =    -0.7402755702D+00 EUMP2 =    -0.21165563229875D+03
 E2 =    -0.7567039662D+00 EUMP2 =    -0.21166814712601D+03
 E2 =    -0.7560182319D+00 EUMP2 =    -0.21167643976740D+03
 E2 =    -0.7639140477D+00 EUMP2 =    -0.21167978156616D+03
 E2 =    -0.7641676555D+00 EUMP2 =    -0.21168148305882D+03
 E2 =    -0.7677066627D+00 EUMP2 =    -0.21168364842575D+03
 E2 =    -0.7711339247D+00 EUMP2 =    -0.21168521670808D+03
 E2 =    -0.7732338894D+00 EUMP2 =    -0.21168579979320D+03
 SCF Done:  E(RHF) =  -210.911459280     A.U. after   13 cycles
 E2 =    -0.7746956473D+00 EUMP2 =    -0.21168615492697D+03
 SCF Done:  E(RHF) =  -210.911221028     A.U. after   14 cycles
 E2 =    -0.7751071755D+00 EUMP2 =    -0.21168632820315D+03
 SCF Done:  E(RHF) =  -210.911956119     A.U. after   13 cycles
 E2 =    -0.7744705149D+00 EUMP2 =    -0.21168642663401D+03
 SCF Done:  E(RHF) =  -210.912738940     A.U. after   13 cycles
 E2 =    -0.7737316074D+00 EUMP2 =    -0.21168647054711D+03
 SCF Done:  E(RHF) =  -210.913638146     A.U. after   13 cycles
 E2 =    -0.7728670191D+00 EUMP2 =    -0.21168650516506D+03
 SCF Done:  E(RHF) =  -210.914007234     A.U. after   12 cycles
 E2 =    -0.7725187226D+00 EUMP2 =    -0.21168652595635D+03
 SCF Done:  E(RHF) =  -210.913892946     A.U. after   12 cycles
 E2 =    -0.7726423873D+00 EUMP2 =    -0.21168653533313D+03
 SCF Done:  E(RHF) =  -210.913854786     A.U. after   11 cycles
 E2 =    -0.7726824752D+00 EUMP2 =    -0.21168653726119D+03
 SCF Done:  E(RHF) =  -210.913846698     A.U. after   11 cycles
 E2 =    -0.7726925018D+00 EUMP2 =    -0.21168653919931D+03
 SCF Done:  E(RHF) =  -210.913849414     A.U. after   10 cycles
 E2 =    -0.7726900022D+00 EUMP2 =    -0.21168653941643D+03
 Optimization completed.
    -- Stationary point found.

                         Standard orientation:
 ---------------------------------------------------------------------
 Center     Atomic      Atomic             Coordinates (Angstroms)
 Number     Number       Type             X           Y           Z
 ---------------------------------------------------------------------
      1          7           0       -1.320240    0.476033   -0.046291
      2          1           0       -1.475167    0.932059   -0.945657
      3          6           0       -1.728364   -0.879780   -0.053208
      4          1           0       -2.630612   -1.057153   -0.636518
      5          1           0       -1.713512   -1.328764    0.941908
      6          6           0        1.960066   -0.738574    0.074727
      7          1           0        1.693768   -1.770185   -0.148738
      8          1           0        2.538259   -0.565220    0.979883
      9          6           0        1.158914    0.355215   -0.491710
     10          1           0        0.711335    0.054432   -1.443588
     11          1           0        1.784265    1.238730   -0.661391
     12          6           0       -0.021169    0.774303    0.487885
     13          1           0        0.038957    1.848819    0.690618
     14          1           0        0.077703    0.248068    1.441356
 ---------------------------------------------------------------------

 The electronic state is 1-A.
 Alpha  occ. eigenvalues --  -15.62616 -11.27801 -11.26464 -11.22400 -11.19936
 Alpha  occ. eigenvalues --   -1.25046  -1.03098  -0.92908  -0.84619  -0.78591
 Alpha  occ. eigenvalues --   -0.69176  -0.62971  -0.60832  -0.56515  -0.55532
 Alpha  occ. eigenvalues --   -0.54411  -0.49384  -0.47190  -0.43030  -0.17645
 Alpha virt. eigenvalues --    0.02570   0.21670   0.26512   0.27008   0.27935
 Alpha virt. eigenvalues --    0.30118   0.31962   0.33559   0.34096   0.37035
 Alpha virt. eigenvalues --    0.40476   0.41739   0.46685   0.50226   0.71638

 Mulliken charges:
               1
     1  N   -0.590773
     2  H    0.376699
     3  C   -0.254735
     4  H    0.183265
     5  H    0.188857
     6  C   -0.458824
     7  H    0.164457
     8  H    0.150502
     9  C   -0.335062
    10  H    0.164099
    11  H    0.168118
    12  C   -0.124436
    13  H    0.174950
    14  H    0.192882
 Sum of Mulliken charges =  -0.00000

 Dipole moment (field-independent basis, Debye):
    X=             -2.2729    Y=              1.3858    Z=             -0.1696  Tot=              2.6674
 Quadrupole moment (field-independent basis, Debye-Ang):
   XX=            -36.5372   YY=            -32.7536   ZZ=            -31.7366
   XY=              2.3487   XZ=              3.4899   YZ=             -1.9245

 Normal termination of Gaussian 16 at Fri Apr  2 19:24:46 2021.
