 Gaussian 16, Revision A.03,
 Gaussian 16:  ES64L-G16RevA.03 25-Dec-2016

 -----------------------------------------------------
 # opt=modredundant MP2/6-31g(d) Geom=PrintInputOrient
 -----------------------------------------------------

 ---------------------------
 PRLD Dihedral/Improper Scan
 ---------------------------
 Symbolic Z-matrix:
 Charge =  0 Multiplicity = 1

 SCF Done:  E(RHF) =  -211.143200098     A.U. after   12 cycles
 E2 =    -0.6841488883D+00 EUMP2 =    -0.21182734898599D+03
 SCF Done:  E(RHF) =  -211.143209170     A.U. after    7 cycles
 E2 =    -0.6841422365D+00 EUMP2 =    -0.21182735140671D+03
 Optimization completed.
    -- Stationary point found.
 SCF Done:  E(RHF) =  -211.129688740     A.U. after   11 cycles
 E2 =    -0.6846172891D+00 EUMP2 =    -0.21181430602894D+03
 SCF Done:  E(RHF) =  -211.135834050     A.U. after   11 cycles
 E2 =    -0.6847153892D+00 EUMP2 =    -0.21182054943912D+03
 SCF Done:  E(RHF) =  -211.137792368     A.U. after   10 cycles
 E2 =    -0.6848331274D+00 EUMP2 =    -0.21182262549571D+03
 SCF Done:  E(RHF) =  -211.138043344     A.U. after   10 cycles
 E2 =    -0.6852104673D+00 EUMP2 =    -0.21182325381149D+03
 SCF Done:  E(RHF) =  -211.138066953     A.U. after   10 cycles
 E2 =    -0.6853916619D+00 EUMP2 =    -0.21182345861484D+03
 SCF Done:  E(RHF) =  -211.138156114     A.U. after   10 cycles
 E2 =    -0.6853409865D+00 EUMP2 =    -0.21182349710065D+03
 SCF Done:  E(RHF) =  -211.138209187     A.U. after    8 cycles
 E2 =    -0.6852918769D+00 EUMP2 =    -0.21182350106400D+03
 Optimization completed.
 SCF Done:  E(RHF) =  -211.110557487     A.U. after   11 cycles
 E2 =    -0.6868760555D+00 EUMP2 =    -0.21179743354293D+03
 E2 =    -0.6870470884D+00 EUMP2 =    -0.21180300697172D+03
 E2 =    -0.6874401292D+00 EUMP2 =    -0.21180355141976D+03
 E2 =    -0.6874548970D+00 EUMP2 =    -0.21180354792108D+03
 E2 =    -0.6874510634D+00 EUMP2 =    -0.21180360695774D+03
 E2 =    -0.6874315170D+00 EUMP2 =    -0.21180361190586D+03
 E2 =    -0.6874326372D+00 EUMP2 =    -0.21180361186366D+03
 E2 =    -0.6913506874D+00 EUMP2 =    -0.21175524717855D+03
 E2 =    -0.6914173817D+00 EUMP2 =    -0.21176071610627D+03
 E2 =    -0.6917849078D+00 EUMP2 =    -0.21176125663998D+03
 E2 =    -0.6917903053D+00 EUMP2 =    -0.21176127403707D+03
 E2 =    -0.1033373247D+01 EUMP2 =    -0.21177172371922D+03
 E2 =    -0.1033792662D+01 EUMP2 =    -0.21177174538077D+03
 E2 =    -0.1034300963D+01 EUMP2 =    -0.21177176916139D+03
 E2 =    -0.1034505981D+01 EUMP2 =    -0.21177178482890D+03
 E2 =    -0.1034929304D+01 EUMP2 =    -0.21177179961961D+03
 E2 =    -0.1035335244D+01 EUMP2 =    -0.21177181110206D+03
 E2 =    -0.1036000096D+01 EUMP2 =    -0.21177181942464D+03
 E2 =    -0.1036434566D+01 EUMP2 =    -0.21177182290856D+03
 E2 =    -0.1036578968D+01 EUMP2 =    -0.21177182327618D+03
    -- Stationary point found.
 E2 =    -0.1018497663D+01 EUMP2 =    -0.21175540163995D+03
 SCF Done:  E(RHF) =  -210.749330288     A.U. after   18 cycles
 E2 =    -0.1017681158D+01 EUMP2 =    -0.21176701144570D+03
 SCF Done:  E(RHF) =  -210.730929977     A.U. after   19 cycles
 E2 =    -0.1040041626D+01 EUMP2 =    -0.21177097160250D+03
 SCF Done:  E(RHF) =  -210.739023006     A.U. after   18 cycles
 E2 =    -0.1036875269D+01 EUMP2 =    -0.21177589827436D+03
 SCF Done:  E(RHF) =  -210.738572153     A.U. after   17 cycles
 E2 =    -0.1038645564D+01 EUMP2 =    -0.21177721771623D+03
 SCF Done:  E(RHF) =  -210.736573306     A.U. after   17 cycles
 E2 =    -0.1040821533D+01 EUMP2 =    -0.21177739483926D+03
 SCF Done:  E(RHF) =  -210.736528118     A.U. after   17 cycles
 E2 =    -0.1040937595D+01 EUMP2 =    -0.21177746571305D+03
 SCF Done:  E(RHF) =  -210.735823102     A.U. after   15 cycles
 E2 =    -0.1041669525D+01 EUMP2 =    -0.21177749262664D+03
 SCF Done:  E(RHF) =  -210.735392105     A.U. after   15 cycles
 E2 =    -0.1042106790D+01 EUMP2 =    -0.21177749889477D+03
 SCF Done:  E(RHF) =  -210.735219577     A.U. after   15 cycles
 E2 =    -0.1042280386D+01 EUMP2 =    -0.21177749996291D+03
 SCF Done:  E(RHF) =  -210.735049692     A.U. after   14 cycles
 E2 =    -0.1042450755D+01 EUMP2 =    -0.21177750044673D+03
 Optimization completed.
    -- Stationary point found.

                         Standard orientation:
 ---------------------------------------------------------------------
 Center     Atomic      Atomic             Coordinates (Angstroms)
 Number     Number       Type             X           Y           Z
 ---------------------------------------------------------------------
      1          7           0       -0.078423   -0.335539   -0.116576
      2          1           0       -0.405839   -1.125876    0.470766
      3          6           0        1.280134    0.165689    0.583654
      4          1           0        1.357998   -0.352327    1.541755
      5          1           0        1.134806    1.230760    0.777708
      6          6           0        2.470020   -0.105617   -0.323928
      7          1           0        2.343341    0.401262   -1.278625
      8          1           0        2.519400   -1.163929   -0.579936
      9          6           0       -2.437847   -0.271880   -0.024866
     10          1           0       -2.403678   -0.749068    0.959741
     11          1           0       -2.385570   -1.074465   -0.761484
     12          6           0       -1.194690    0.648821   -0.193048
     13          1           0       -1.150449    1.410388    0.598707
     14          1           0       -1.166759    1.149952   -1.163468
 ---------------------------------------------------------------------

 The electronic state is 1-A.
 Alpha  occ. eigenvalues --  -15.55210 -11.26927 -11.26274 -11.26170 -11.25778
 Alpha  occ. eigenvalues --   -1.17429  -1.01659  -0.93164  -0.82671  -0.81167
 Alpha  occ. eigenvalues --   -0.64216  -0.62899  -0.57854  -0.55744  -0.54607
 Alpha  occ. eigenvalues --   -0.51361  -0.49774  -0.49103  -0.37496  -0.16766
 Alpha virt. eigenvalues --   -0.09922   0.22627   0.25555   0.26105   0.28175
 Alpha virt. eigenvalues --    0.30456   0.31958   0.32948   0.33316   0.35365
 Alpha virt. eigenvalues --    0.38523   0.41290   0.42747   0.44381   0.70438

 Mulliken charges:
               1
     1  N   -0.728802
     2  H    0.329758
     3  C   -0.156674
     4  H    0.164383
     5  H    0.168528
     6  C   -0.330469
     7  H    0.182864
     8  H    0.180490
     9  C   -0.375755
    10  H    0.163797
    11  H    0.190774
    12  C   -0.117705
    13  H    0.150759
    14  H    0.178051
 Sum of Mulliken charges =  -0.00000

 Dipole moment (field-independent basis, Debye):
    X=             -0.0109    Y=             -0.1509    Z=              1.1184  Tot=              1.1286
 Quadrupole moment (field-independent basis, Debye-Ang):
   XX=            -40.8431   YY=            -31.4490   ZZ=            -32.6238
   XY=              0.5064   XZ=             -0.3652   YZ=             -1.3944

 Normal termination of Gaussian 16 at Fri Apr  2 20:18:39 2021.
