 Gaussian 16, Revision A.03,
 Gaussian 16:  ES64L-G16RevA.03 25-Dec-2016

 -----------------------------------------------------
 # opt=modredundant MP2/6-31g(d) Geom=PrintInputOrient
 -----------------------------------------------------

 ---------------------------
 PRLD Dihedral/Improper Scan
 ---------------------------
 Symbolic Z-matrix:
 Charge =  0 Multiplicity = 1

 SCF Done:  E(RHF) =  -211.143200098     A.U. after   12 cycles
 E2 =    -0.6841488883D+00 EUMP2 =    -0.21182734898599D+03
 SCF Done:  E(RHF) =  -211.143209595     A.U. after    7 cycles
 E2 =    -0.6841418201D+00 EUMP2 =    -0.21182735141491D+03
 Optimization completed.
    -- Stationary point found.
 SCF Done:  E(RHF) =  -211.129047811     A.U. after   11 cycles
 E2 =    -0.6862521705D+00 EUMP2 =    -0.21181529998191D+03
 SCF Done:  E(RHF) =  -211.137873911     A.U. after   11 cycles
 E2 =    -0.6848521813D+00 EUMP2 =    -0.21182272609258D+03
 SCF Done:  E(RHF) =  -211.141158875     A.U. after   11 cycles
 E2 =    -0.6839417716D+00 EUMP2 =    -0.21182510064709D+03
 SCF Done:  E(RHF) =  -211.142759146     A.U. after   10 cycles
 E2 =    -0.6835238453D+00 EUMP2 =    -0.21182628299084D+03
 SCF Done:  E(RHF) =  -211.142734392     A.U. after   11 cycles
 E2 =    -0.6838636850D+00 EUMP2 =    -0.21182659807683D+03
 SCF Done:  E(RHF) =  -211.143058644     A.U. after   11 cycles
 E2 =    -0.6838456212D+00 EUMP2 =    -0.21182690426552D+03
 SCF Done:  E(RHF) =  -211.143058398     A.U. after   10 cycles
 E2 =    -0.6840537922D+00 EUMP2 =    -0.21182711218997D+03
 SCF Done:  E(RHF) =  -211.142920013     A.U. after   10 cycles
 E2 =    -0.6842727510D+00 EUMP2 =    -0.21182719276372D+03
 E2 =    -0.6842449395D+00 EUMP2 =    -0.21182719622841D+03
 E2 =    -0.6842565792D+00 EUMP2 =    -0.21182719633046D+03
 Optimization completed.
 E2 =    -0.6860986290D+00 EUMP2 =    -0.21181664788271D+03
 E2 =    -0.6844119915D+00 EUMP2 =    -0.21182447055240D+03
 E2 =    -0.6838672688D+00 EUMP2 =    -0.21182651834558D+03
 E2 =    -0.6840037749D+00 EUMP2 =    -0.21182657769186D+03
 E2 =    -0.6839654988D+00 EUMP2 =    -0.21182658339802D+03
 E2 =    -0.6855769826D+00 EUMP2 =    -0.21181707580999D+03
 E2 =    -0.6844696536D+00 EUMP2 =    -0.21182452404813D+03
 E2 =    -0.6836636678D+00 EUMP2 =    -0.21182600876088D+03
 E2 =    -0.6840581480D+00 EUMP2 =    -0.21182453212570D+03
 E2 =    -0.6832186240D+00 EUMP2 =    -0.21182591005615D+03
 E2 =    -0.6830261539D+00 EUMP2 =    -0.21182595850653D+03
 E2 =    -0.6829992757D+00 EUMP2 =    -0.21182596173692D+03
 E2 =    -0.6846483232D+00 EUMP2 =    -0.21181620548058D+03
 E2 =    -0.6842581652D+00 EUMP2 =    -0.21182430436280D+03
 E2 =    -0.6832378107D+00 EUMP2 =    -0.21182602566732D+03
 E2 =    -0.6829408297D+00 EUMP2 =    -0.21182621953093D+03
 E2 =    -0.6828384483D+00 EUMP2 =    -0.21182624958744D+03
 E2 =    -0.6828287244D+00 EUMP2 =    -0.21182625146962D+03
 SCF Done:  E(RHF) =  -211.143424352     A.U. after    8 cycles
 E2 =    -0.6828272363D+00 EUMP2 =    -0.21182625158786D+03
    -- Stationary point found.
 SCF Done:  E(RHF) =  -211.129996767     A.U. after   11 cycles
 E2 =    -0.6849344441D+00 EUMP2 =    -0.21181493121083D+03
 SCF Done:  E(RHF) =  -211.138561734     A.U. after   11 cycles
 E2 =    -0.6848587742D+00 EUMP2 =    -0.21182342050783D+03
 SCF Done:  E(RHF) =  -211.141698889     A.U. after   11 cycles
 E2 =    -0.6839710931D+00 EUMP2 =    -0.21182566998220D+03
 SCF Done:  E(RHF) =  -211.142735798     A.U. after   11 cycles
 E2 =    -0.6836801885D+00 EUMP2 =    -0.21182641598604D+03
 SCF Done:  E(RHF) =  -211.143233496     A.U. after   11 cycles
 E2 =    -0.6835664948D+00 EUMP2 =    -0.21182679999084D+03
 SCF Done:  E(RHF) =  -211.143243161     A.U. after   10 cycles
 E2 =    -0.6836683120D+00 EUMP2 =    -0.21182691147325D+03
 SCF Done:  E(RHF) =  -211.143198553     A.U. after    9 cycles
 E2 =    -0.6837176615D+00 EUMP2 =    -0.21182691621478D+03
 SCF Done:  E(RHF) =  -211.143247135     A.U. after    9 cycles
 E2 =    -0.6836735988D+00 EUMP2 =    -0.21182692073333D+03
 SCF Done:  E(RHF) =  -211.143244700     A.U. after    8 cycles
 E2 =    -0.6836765647D+00 EUMP2 =    -0.21182692126486D+03
 Optimization completed.
    -- Stationary point found.

                         Standard orientation:
 ---------------------------------------------------------------------
 Center     Atomic      Atomic             Coordinates (Angstroms)
 Number     Number       Type             X           Y           Z
 ---------------------------------------------------------------------
      1          7           0        0.364128   -1.091327    0.386403
      2          1           0        0.694314   -2.021363    0.125197
      3          6           0        1.241704   -0.047565   -0.153053
      4          1           0        1.480013   -0.202684   -1.219613
      5          1           0        2.183837   -0.006241    0.401733
      6          6           0        0.383021    1.223842    0.013550
      7          1           0        0.515609    1.902855   -0.833423
      8          1           0        0.665017    1.769034    0.917617
      9          6           0       -1.070964    0.695533    0.116007
     10          1           0       -1.762876    1.220520   -0.548738
     11          1           0       -1.442702    0.792181    1.138746
     12          6           0       -0.926890   -0.785676   -0.233587
     13          1           0       -0.922559   -0.920923   -1.330302
     14          1           0       -1.720774   -1.410899    0.186460
 ---------------------------------------------------------------------

 The electronic state is 1-A.
 Alpha  occ. eigenvalues --  -15.54011 -11.24224 -11.24154 -11.21592 -11.21461
 Alpha  occ. eigenvalues --   -1.21713  -1.01792  -0.96847  -0.80407  -0.77756
 Alpha  occ. eigenvalues --   -0.68489  -0.65419  -0.58615  -0.55372  -0.50962
 Alpha  occ. eigenvalues --   -0.50321  -0.47820  -0.46847  -0.45474  -0.36875
 Alpha virt. eigenvalues --    0.22320   0.25227   0.28455   0.29315   0.30783
 Alpha virt. eigenvalues --    0.32932   0.34134   0.34355   0.36279   0.37577
 Alpha virt. eigenvalues --    0.40722   0.41226   0.46962   0.51570   0.73378

 Mulliken charges:
               1
     1  N   -0.689074
     2  H    0.333676
     3  C   -0.133453
     4  H    0.136527
     5  H    0.170258
     6  C   -0.335275
     7  H    0.162005
     8  H    0.173276
     9  C   -0.316675
    10  H    0.161440
    11  H    0.176240
    12  C   -0.141488
    13  H    0.133756
    14  H    0.168787
 Sum of Mulliken charges =  -0.00000

 Dipole moment (field-independent basis, Debye):
    X=              0.0693    Y=             -0.0814    Z=             -1.1612  Tot=              1.1661
 Quadrupole moment (field-independent basis, Debye-Ang):
   XX=            -31.5133   YY=            -31.0716   ZZ=            -34.1760
   XY=             -0.2326   XZ=             -0.3711   YZ=              1.4814

 Normal termination of Gaussian 16 at Fri Apr  2 19:46:14 2021.
