 Gaussian 16, Revision A.03,
 Gaussian 16:  ES64L-G16RevA.03 25-Dec-2016

 -----------------------------------------------------
 # opt=modredundant MP2/6-31g(d) Geom=PrintInputOrient
 -----------------------------------------------------

 ---------------------------
 PRLD Dihedral/Improper Scan
 ---------------------------
 Symbolic Z-matrix:
 Charge =  0 Multiplicity = 1

 SCF Done:  E(RHF) =  -211.143200098     A.U. after   12 cycles
 E2 =    -0.6841488883D+00 EUMP2 =    -0.21182734898599D+03
 SCF Done:  E(RHF) =  -211.143209170     A.U. after    7 cycles
 E2 =    -0.6841422365D+00 EUMP2 =    -0.21182735140671D+03
 Optimization completed.
    -- Stationary point found.
 SCF Done:  E(RHF) =  -211.129053563     A.U. after   11 cycles
 E2 =    -0.6862524570D+00 EUMP2 =    -0.21181530602002D+03
 SCF Done:  E(RHF) =  -211.137927596     A.U. after   11 cycles
 E2 =    -0.6848046497D+00 EUMP2 =    -0.21182273224539D+03
 SCF Done:  E(RHF) =  -211.141149461     A.U. after   11 cycles
 E2 =    -0.6839431988D+00 EUMP2 =    -0.21182509265986D+03
 SCF Done:  E(RHF) =  -211.142720093     A.U. after   10 cycles
 E2 =    -0.6835322876D+00 EUMP2 =    -0.21182625238098D+03
 SCF Done:  E(RHF) =  -211.142722536     A.U. after   12 cycles
 E2 =    -0.6838567140D+00 EUMP2 =    -0.21182657925009D+03
 SCF Done:  E(RHF) =  -211.143057897     A.U. after   11 cycles
 E2 =    -0.6838415535D+00 EUMP2 =    -0.21182689945083D+03
 SCF Done:  E(RHF) =  -211.143059259     A.U. after   10 cycles
 E2 =    -0.6840525095D+00 EUMP2 =    -0.21182711176895D+03
 SCF Done:  E(RHF) =  -211.142925567     A.U. after   10 cycles
 E2 =    -0.6842683025D+00 EUMP2 =    -0.21182719386935D+03
 E2 =    -0.6842421861D+00 EUMP2 =    -0.21182719683160D+03
 E2 =    -0.6842566888D+00 EUMP2 =    -0.21182719702540D+03
 Optimization completed.
 E2 =    -0.6860991349D+00 EUMP2 =    -0.21181664653547D+03
 E2 =    -0.6844227007D+00 EUMP2 =    -0.21182446694471D+03
 E2 =    -0.6838683383D+00 EUMP2 =    -0.21182651704799D+03
 E2 =    -0.6840026733D+00 EUMP2 =    -0.21182657819830D+03
 E2 =    -0.6839662641D+00 EUMP2 =    -0.21182658442103D+03
 E2 =    -0.6855782574D+00 EUMP2 =    -0.21181707598929D+03
 E2 =    -0.6844798798D+00 EUMP2 =    -0.21182452561077D+03
 E2 =    -0.6836562646D+00 EUMP2 =    -0.21182601127879D+03
 E2 =    -0.6849556185D+00 EUMP2 =    -0.21181693743659D+03
 E2 =    -0.6840589868D+00 EUMP2 =    -0.21182453760940D+03
 E2 =    -0.6832133285D+00 EUMP2 =    -0.21182591269890D+03
 E2 =    -0.6830297018D+00 EUMP2 =    -0.21182595883736D+03
 E2 =    -0.6830015362D+00 EUMP2 =    -0.21182596155412D+03
 E2 =    -0.6846480294D+00 EUMP2 =    -0.21181620791142D+03
 E2 =    -0.6842374692D+00 EUMP2 =    -0.21182428897753D+03
 E2 =    -0.6832248422D+00 EUMP2 =    -0.21182602591521D+03
 E2 =    -0.6829286905D+00 EUMP2 =    -0.21182621925732D+03
 E2 =    -0.6828405588D+00 EUMP2 =    -0.21182624902126D+03
 SCF Done:  E(RHF) =  -211.143422078     A.U. after    8 cycles
 E2 =    -0.6828287316D+00 EUMP2 =    -0.21182625080916D+03
    -- Stationary point found.
 SCF Done:  E(RHF) =  -211.130004393     A.U. after   11 cycles
 E2 =    -0.6849322418D+00 EUMP2 =    -0.21181493663475D+03
 SCF Done:  E(RHF) =  -211.138504753     A.U. after   11 cycles
 E2 =    -0.6848900472D+00 EUMP2 =    -0.21182339479999D+03
 SCF Done:  E(RHF) =  -211.141645446     A.U. after   11 cycles
 E2 =    -0.6840134722D+00 EUMP2 =    -0.21182565891792D+03
 SCF Done:  E(RHF) =  -211.142761462     A.U. after   11 cycles
 E2 =    -0.6836791112D+00 EUMP2 =    -0.21182644057330D+03
 SCF Done:  E(RHF) =  -211.143244576     A.U. after   11 cycles
 E2 =    -0.6835757527D+00 EUMP2 =    -0.21182682032917D+03
 SCF Done:  E(RHF) =  -211.143246167     A.U. after   10 cycles
 E2 =    -0.6836711319D+00 EUMP2 =    -0.21182691729886D+03
 SCF Done:  E(RHF) =  -211.143218810     A.U. after    9 cycles
 E2 =    -0.6837029698D+00 EUMP2 =    -0.21182692177998D+03
 SCF Done:  E(RHF) =  -211.143253013     A.U. after    9 cycles
 E2 =    -0.6836713011D+00 EUMP2 =    -0.21182692431399D+03
 SCF Done:  E(RHF) =  -211.143250682     A.U. after    8 cycles
 E2 =    -0.6836739638D+00 EUMP2 =    -0.21182692464599D+03
 Optimization completed.
    -- Stationary point found.

                         Standard orientation:
 ---------------------------------------------------------------------
 Center     Atomic      Atomic             Coordinates (Angstroms)
 Number     Number       Type             X           Y           Z
 ---------------------------------------------------------------------
      1          7           0       -0.361426   -1.092254    0.386381
      2          1           0       -0.689218   -2.023123    0.125149
      3          6           0        0.928965   -0.783405   -0.233317
      4          1           0        0.925285   -0.919110   -1.329976
      5          1           0        1.724384   -1.406373    0.187176
      6          6           0        1.069176    0.698359    0.115677
      7          1           0        1.759370    1.224878   -0.549646
      8          1           0        1.441251    0.796452    1.138156
      9          6           0       -0.386240    1.222849    0.013829
     10          1           0       -0.520914    1.902052   -0.832663
     11          1           0       -0.669500    1.766673    0.918325
     12          6           0       -1.241517   -0.050714   -0.153260
     13          1           0       -1.479011   -0.206292   -1.219937
     14          1           0       -2.183969   -0.011915    0.401172
 ---------------------------------------------------------------------

 The electronic state is 1-A.
 Alpha  occ. eigenvalues --  -15.54011 -11.24224 -11.24154 -11.21592 -11.21461
 Alpha  occ. eigenvalues --   -1.21712  -1.01792  -0.96848  -0.80407  -0.77756
 Alpha  occ. eigenvalues --   -0.68489  -0.65419  -0.58615  -0.55373  -0.50962
 Alpha  occ. eigenvalues --   -0.50322  -0.47820  -0.46848  -0.45473  -0.36874
 Alpha virt. eigenvalues --    0.22320   0.25225   0.28456   0.29314   0.30783
 Alpha virt. eigenvalues --    0.32931   0.34135   0.34356   0.36278   0.37577
 Alpha virt. eigenvalues --    0.40724   0.41225   0.46967   0.51573   0.73378

 Mulliken charges:
               1
     1  N   -0.689077
     2  H    0.333678
     3  C   -0.141450
     4  H    0.133754
     5  H    0.168791
     6  C   -0.316736
     7  H    0.161446
     8  H    0.176228
     9  C   -0.335224
    10  H    0.162007
    11  H    0.173283
    12  C   -0.133467
    13  H    0.136513
    14  H    0.170254
 Sum of Mulliken charges =  -0.00000

 Dipole moment (field-independent basis, Debye):
    X=             -0.0689    Y=             -0.0815    Z=             -1.1612  Tot=              1.1661
 Quadrupole moment (field-independent basis, Debye-Ang):
   XX=            -31.5143   YY=            -31.0703   ZZ=            -34.1761
   XY=              0.2311   XZ=              0.3681   YZ=              1.4821

 Normal termination of Gaussian 16 at Fri Apr  2 19:16:49 2021.
