 Gaussian 16, Revision A.03,
 Gaussian 16:  ES64L-G16RevA.03 25-Dec-2016

 -----------------------------------------------------
 # opt=modredundant MP2/6-31g(d) Geom=PrintInputOrient
 -----------------------------------------------------

 ---------------------------
 PRLD Dihedral/Improper Scan
 ---------------------------
 Symbolic Z-matrix:
 Charge =  0 Multiplicity = 1

 SCF Done:  E(RHF) =  -211.143200098     A.U. after   12 cycles
 E2 =    -0.6841488883D+00 EUMP2 =    -0.21182734898599D+03
 SCF Done:  E(RHF) =  -211.143209595     A.U. after    7 cycles
 E2 =    -0.6841418201D+00 EUMP2 =    -0.21182735141491D+03
 Optimization completed.
    -- Stationary point found.
 SCF Done:  E(RHF) =  -211.129703069     A.U. after   11 cycles
 E2 =    -0.6846156372D+00 EUMP2 =    -0.21181431870615D+03
 SCF Done:  E(RHF) =  -211.135897826     A.U. after   11 cycles
 E2 =    -0.6846555434D+00 EUMP2 =    -0.21182055336900D+03
 SCF Done:  E(RHF) =  -211.137801305     A.U. after   10 cycles
 E2 =    -0.6848283446D+00 EUMP2 =    -0.21182262964993D+03
 SCF Done:  E(RHF) =  -211.138054475     A.U. after   10 cycles
 E2 =    -0.6852232903D+00 EUMP2 =    -0.21182327776494D+03
 SCF Done:  E(RHF) =  -211.138089374     A.U. after   10 cycles
 E2 =    -0.6853840532D+00 EUMP2 =    -0.21182347342723D+03
 SCF Done:  E(RHF) =  -211.138171582     A.U. after   10 cycles
 E2 =    -0.6853408534D+00 EUMP2 =    -0.21182351243538D+03
 SCF Done:  E(RHF) =  -211.138227415     A.U. after    8 cycles
 E2 =    -0.6852893893D+00 EUMP2 =    -0.21182351680481D+03
 Optimization completed.
 SCF Done:  E(RHF) =  -211.110606516     A.U. after   11 cycles
 E2 =    -0.6868713742D+00 EUMP2 =    -0.21179747789042D+03
 E2 =    -0.6870365343D+00 EUMP2 =    -0.21180305379967D+03
 E2 =    -0.6874332057D+00 EUMP2 =    -0.21180359787691D+03
 E2 =    -0.6874520152D+00 EUMP2 =    -0.21180359474407D+03
 E2 =    -0.6874469165D+00 EUMP2 =    -0.21180365426810D+03
 E2 =    -0.6874267310D+00 EUMP2 =    -0.21180365892218D+03
 E2 =    -0.6874279304D+00 EUMP2 =    -0.21180365889079D+03
 E2 =    -0.6913417594D+00 EUMP2 =    -0.21175533170814D+03
 E2 =    -0.6914151913D+00 EUMP2 =    -0.21176080041181D+03
 E2 =    -0.6917743751D+00 EUMP2 =    -0.21176133875032D+03
 E2 =    -0.6917814980D+00 EUMP2 =    -0.21176135582696D+03
    -- Stationary point found.
 E2 =    -0.8042554294D+00 EUMP2 =    -0.21168038915591D+03
 E2 =    -0.8069799031D+00 EUMP2 =    -0.21168050953336D+03
 E2 =    -0.8158523344D+00 EUMP2 =    -0.21168087218799D+03
 E2 =    -0.8161877863D+00 EUMP2 =    -0.21168090797666D+03
 E2 =    -0.8210127812D+00 EUMP2 =    -0.21168096594746D+03
 E2 =    -0.8191334229D+00 EUMP2 =    -0.21167878729289D+03
 E2 =    -0.8200957212D+00 EUMP2 =    -0.21168113342125D+03
 E2 =    -0.8159598999D+00 EUMP2 =    -0.21168115290328D+03
 E2 =    -0.8182917545D+00 EUMP2 =    -0.21168126499914D+03
 E2 =    -0.8179581484D+00 EUMP2 =    -0.21168130327892D+03
 SCF Done:  E(RHF) =  -210.863882141     A.U. after   12 cycles
 E2 =    -0.8174374105D+00 EUMP2 =    -0.21168131955142D+03
 SCF Done:  E(RHF) =  -210.864425601     A.U. after   12 cycles
 E2 =    -0.8169115138D+00 EUMP2 =    -0.21168133711445D+03
 SCF Done:  E(RHF) =  -210.864844979     A.U. after   12 cycles
 E2 =    -0.8165050162D+00 EUMP2 =    -0.21168134999490D+03
 SCF Done:  E(RHF) =  -210.864534986     A.U. after   12 cycles
 E2 =    -0.8168113335D+00 EUMP2 =    -0.21168134631901D+03
 SCF Done:  E(RHF) =  -210.865443298     A.U. after   13 cycles
 E2 =    -0.8159176051D+00 EUMP2 =    -0.21168136090287D+03
 SCF Done:  E(RHF) =  -210.864646114     A.U. after   13 cycles
 E2 =    -0.8166791090D+00 EUMP2 =    -0.21168132522297D+03
 SCF Done:  E(RHF) =  -210.865633598     A.U. after   13 cycles
 E2 =    -0.8157130165D+00 EUMP2 =    -0.21168134661467D+03
 SCF Done:  E(RHF) =  -210.865156722     A.U. after   13 cycles
 E2 =    -0.8161937389D+00 EUMP2 =    -0.21168135046083D+03
 SCF Done:  E(RHF) =  -210.865036284     A.U. after   11 cycles
 E2 =    -0.8163142414D+00 EUMP2 =    -0.21168135052570D+03
 SCF Done:  E(RHF) =  -210.865084532     A.U. after    9 cycles
 E2 =    -0.8162659611D+00 EUMP2 =    -0.21168135049309D+03
 Optimization completed.
    -- Stationary point found.

                         Standard orientation:
 ---------------------------------------------------------------------
 Center     Atomic      Atomic             Coordinates (Angstroms)
 Number     Number       Type             X           Y           Z
 ---------------------------------------------------------------------
      1          7           0        1.174482   -0.232711   -0.464030
      2          1           0        0.819963    0.231160   -1.300952
      3          6           0        2.177719    0.611950    0.172078
      4          1           0        3.010939    0.791953   -0.513734
      5          1           0        2.496012    0.188152    1.130521
      6          6           0       -2.017386    0.860767    0.089443
      7          1           0       -1.408034    1.752106    0.243977
      8          1           0       -3.097303    0.971727    0.071906
      9          6           0       -1.370852   -0.475953   -0.172448
     10          1           0       -1.401064   -0.666710   -1.251264
     11          1           0       -2.019735   -1.240161    0.273915
     12          6           0        0.056566   -0.716181    0.366682
     13          1           0        0.168715   -1.800506    0.486523
     14          1           0        0.132851   -0.282248    1.372789
 ---------------------------------------------------------------------

 The electronic state is 1-A.
 Alpha  occ. eigenvalues --  -15.61874 -11.27760 -11.26686 -11.23488 -11.22230
 Alpha  occ. eigenvalues --   -1.22628  -1.03710  -0.91917  -0.85412  -0.79043
 Alpha  occ. eigenvalues --   -0.65695  -0.63161  -0.62579  -0.56601  -0.54445
 Alpha  occ. eigenvalues --   -0.52768  -0.51038  -0.48052  -0.43275  -0.15840
 Alpha virt. eigenvalues --   -0.01196   0.22624   0.25783   0.26159   0.29243
 Alpha virt. eigenvalues --    0.30388   0.31402   0.32161   0.33898   0.35587
 Alpha virt. eigenvalues --    0.37788   0.42313   0.46902   0.47518   0.71316

 Mulliken charges:
               1
     1  N   -0.633959
     2  H    0.386489
     3  C   -0.241737
     4  H    0.182079
     5  H    0.180359
     6  C   -0.458527
     7  H    0.177144
     8  H    0.179215
     9  C   -0.338146
    10  H    0.158536
    11  H    0.165806
    12  C   -0.103280
    13  H    0.184344
    14  H    0.161675
 Sum of Mulliken charges =  -0.00000

 Dipole moment (field-independent basis, Debye):
    X=              0.7852    Y=             -0.6637    Z=             -0.4888  Tot=              1.1385
 Quadrupole moment (field-independent basis, Debye-Ang):
   XX=            -33.3963   YY=            -34.9788   ZZ=            -32.6920
   XY=              1.6393   XZ=              0.3590   YZ=             -1.7919

 Normal termination of Gaussian 16 at Fri Apr  2 19:34:59 2021.
