 Gaussian 16, Revision A.03,
 Gaussian 16:  ES64L-G16RevA.03 25-Dec-2016

 ------------------------------------------------------------
 # MP2/6-31G* Opt=(Redundant) SCF=Tight Geom=PrintInputOrient
 ------------------------------------------------------------

 --------------------------------------------------
 <qmtool> simtype="Geometry optimization" </qmtool>
 --------------------------------------------------
 Symbolic Z-matrix:
 Charge =  0 Multiplicity = 1

 SCF Done:  E(RHF) =  -211.089879439     A.U. after   12 cycles
 E2 =    -0.6736266357D+00 EUMP2 =    -0.21176350607442D+03
 SCF Done:  E(RHF) =  -211.133020835     A.U. after   11 cycles
 E2 =    -0.6785101837D+00 EUMP2 =    -0.21181153101908D+03
 SCF Done:  E(RHF) =  -211.141709939     A.U. after   11 cycles
 E2 =    -0.6827868749D+00 EUMP2 =    -0.21182449681356D+03
 SCF Done:  E(RHF) =  -211.142730537     A.U. after   11 cycles
 E2 =    -0.6837098520D+00 EUMP2 =    -0.21182644038914D+03
 SCF Done:  E(RHF) =  -211.143095689     A.U. after   11 cycles
 E2 =    -0.6841789495D+00 EUMP2 =    -0.21182727463868D+03
 SCF Done:  E(RHF) =  -211.143226090     A.U. after   10 cycles
 E2 =    -0.6841188001D+00 EUMP2 =    -0.21182734489012D+03
 SCF Done:  E(RHF) =  -211.143210639     A.U. after    9 cycles
 E2 =    -0.6841403677D+00 EUMP2 =    -0.21182735100653D+03
 SCF Done:  E(RHF) =  -211.143212019     A.U. after    8 cycles
 E2 =    -0.6841394450D+00 EUMP2 =    -0.21182735146357D+03
 Optimization completed.
    -- Stationary point found.

                         Standard orientation:
 ---------------------------------------------------------------------
 Center     Atomic      Atomic             Coordinates (Angstroms)
 Number     Number       Type             X           Y           Z
 ---------------------------------------------------------------------
      1          7           0        0.000101   -1.268164   -0.215889
      2          1           0        0.000231   -1.308397   -1.237461
      3          6           0        1.147875   -0.450631    0.201019
      4          1           0        2.058255   -0.774513   -0.311335
      5          1           0        1.296308   -0.611833    1.274981
      6          6           0        0.773773    1.023690   -0.071589
      7          1           0        1.161025    1.341193   -1.044854
      8          1           0        1.194129    1.700218    0.678552
      9          6           0       -0.773841    1.023692   -0.071282
     10          1           0       -1.161512    1.341800   -1.044179
     11          1           0       -1.193848    1.699785    0.679447
     12          6           0       -1.147890   -0.450786    0.200767
     13          1           0       -2.058037   -0.774607   -0.312036
     14          1           0       -1.296756   -0.612286    1.274621
 ---------------------------------------------------------------------

 The electronic state is 1-A.
 Alpha  occ. eigenvalues --  -15.54076 -11.24196 -11.24194 -11.21855 -11.21800
 Alpha  occ. eigenvalues --   -1.21652  -1.01922  -0.96907  -0.81413  -0.78332
 Alpha  occ. eigenvalues --   -0.67529  -0.63697  -0.58963  -0.58388  -0.50627
 Alpha  occ. eigenvalues --   -0.49279  -0.47934  -0.47629  -0.45728  -0.37277
 Alpha virt. eigenvalues --    0.21286   0.24725   0.28662   0.29027   0.30119
 Alpha virt. eigenvalues --    0.32563   0.33860   0.33952   0.36378   0.37743
 Alpha virt. eigenvalues --    0.40784   0.41401   0.48525   0.52440   0.72775

 Mulliken charges:
               1
     1  N   -0.656565
     2  H    0.322869
     3  C   -0.156663
     4  H    0.169394
     5  H    0.168352
     6  C   -0.343412
     7  H    0.161414
     8  H    0.167763
     9  C   -0.343446
    10  H    0.161432
    11  H    0.167765
    12  C   -0.156658
    13  H    0.169392
    14  H    0.168363
 Sum of Mulliken charges =  -0.00000

 Dipole moment (field-independent basis, Debye):
    X=              0.0000    Y=              1.4008    Z=             -0.6727  Tot=              1.5539
 Quadrupole moment (field-independent basis, Debye-Ang):
   XX=            -31.4374   YY=            -37.4370   ZZ=            -30.3396
   XY=              0.0002   XZ=             -0.0000   YZ=              1.4464

 Normal termination of Gaussian 16 at Tue Mar 30 15:22:41 2021.
