                               Psi4 1.4 release

  ==> Input File <==

--------------------------------------------------------------------------
memory 1GB

molecule mol {
    0 1
    O
    H 1 0.9572
    H 1 0.9572 2 104.52
}

energy("HF/6-31G*")
--------------------------------------------------------------------------

    Molecular point group: c2v

    Geometry (in Angstrom), charge = 0, multiplicity = 1:

       Center              X                  Y                   Z               Mass
    ------------   -----------------  -----------------  -----------------  -----------------
         O            0.000000000000     0.000000000000    -0.065568940749    15.994914619570
         H            0.000000000000    -0.756950327264     0.520313335869     1.007825032230
         H            0.000000000000     0.756950327264     0.520313335869     1.007825032230

  Charge       = 0
  Multiplicity = 1
  Basis Set: 6-31G*
    Blend: 6-31G*
  Basis Set: (6-31G* AUX)
    Blend: CC-PVDZ-JKFIT

    Orbital Energies [Eh]
    ---------------------

    Doubly Occupied:

       1A1   -20.560366     2A1    -1.341806     1B2    -0.706946
       3A1    -0.570999     1B1    -0.497897

  @DF-RHF Final Energy:   -76.01050366268146

   => Energetics <=

    Nuclear Repulsion Energy =              9.1949648501620853
    One-Electron Energy =                -123.0549069263615110
    Two-Electron Energy =                  37.8494384135179729
    Total Energy =                        -76.0105036626814581

  Dipole Moment: [D]
     X:     0.0000      Y:     0.0000      Z:     2.2250     Total:     2.2250

*** Psi4 exiting successfully. Buy a developer a beer!
