 Gaussian 16, Revision A.03,
 Gaussian 16:  ES64L-G16RevA.03 25-Dec-2016

 --------------------------------------
 # MP2/6-31G* SCF=Tight Density=Current
 --------------------------------------

 -----------------------------------------------------------------
 <qmtool> simtype="Single point calculation" </qmtool> PRLD-sp-MP2
 -----------------------------------------------------------------
 Symbolic Z-matrix:
 Charge =  0 Multiplicity = 1

                         Standard orientation:
 ---------------------------------------------------------------------
 Center     Atomic      Atomic             Coordinates (Angstroms)
 Number     Number       Type             X           Y           Z
 ---------------------------------------------------------------------
      1          7           0       -0.009754   -1.267896   -0.216048
      2          1           0       -0.009609   -1.307741   -1.237979
      3          6           0        1.144047   -0.459296    0.201285
      4          1           0        2.052841   -0.790293   -0.312042
      5          1           0        1.291688   -0.622098    1.274281
      6          6           0        0.781546    1.017994   -0.071425
      7          1           0        1.171547    1.332796   -1.044681
      8          1           0        1.207027    1.690375    0.678894
      9          6           0       -0.765800    1.029688   -0.071443
     10          1           0       -1.151178    1.350244   -1.044131
     11          1           0       -1.181004    1.708768    0.679833
     12          6           0       -1.151114   -0.442432    0.200878
     13          1           0       -2.063843   -0.759288   -0.312137
     14          1           0       -1.301266   -0.603214    1.274532
 ---------------------------------------------------------------------

 SCF Done:  E(RHF) =  -211.143200098     A.U. after   12 cycles
 E2 =    -0.6841488883D+00 EUMP2 =    -0.21182734898599D+03

 The electronic state is 1-A.
 Alpha  occ. eigenvalues --  -15.54076 -11.24200 -11.24195 -11.21855 -11.21799
 Alpha  occ. eigenvalues --   -1.21663  -1.01921  -0.96899  -0.81410  -0.78334
 Alpha  occ. eigenvalues --   -0.67516  -0.63699  -0.58968  -0.58396  -0.50622
 Alpha  occ. eigenvalues --   -0.49289  -0.47912  -0.47626  -0.45740  -0.37275
 Alpha virt. eigenvalues --    0.21279   0.24725   0.28660   0.29029   0.30117
 Alpha virt. eigenvalues --    0.32558   0.33858   0.33958   0.36392   0.37738
 Alpha virt. eigenvalues --    0.40785   0.41401   0.48517   0.52442   0.72779

 Mulliken charges:
               1
     1  N   -0.568033
     2  H    0.310760
     3  C   -0.187801
     4  H    0.164189
     5  H    0.165718
     6  C   -0.334161
     7  H    0.157759
     8  H    0.162965
     9  C   -0.334233
    10  H    0.157855
    11  H    0.162768
    12  C   -0.187712
    13  H    0.164382
    14  H    0.165544
 Sum of Mulliken charges =  -0.00000

 Dipole moment (field-independent basis, Debye):
    X=              0.0100    Y=              1.2825    Z=             -0.6870  Tot=              1.4549
 Quadrupole moment (field-independent basis, Debye-Ang):
   XX=            -31.5127   YY=            -37.2586   ZZ=            -30.3475
   XY=             -0.0408   XZ=              0.0133   YZ=              1.4495

 Normal termination of Gaussian 16 at Wed Mar 31 17:08:14 2021.
