 Gaussian 16, Revision A.03,
 Gaussian 16:  ES64L-G16RevA.03 25-Dec-2016

 --------------------------------------------------------------
 # HF/6-31G* Opt=(Z-matrix,MaxCycles=100) Geom=PrintInputOrient
 --------------------------------------------------------------

 ---------------------------------------------------------------
 <qmtool> simtype="Geometry optimization" </qmtool> PRLD-DON-H31
 ---------------------------------------------------------------
 Symbolic Z-matrix:
 Charge =  0 Multiplicity = 1

 SCF Done:  E(RHF) =  -287.150369968     A.U. after   12 cycles
 SCF Done:  E(RHF) =  -287.152383413     A.U. after   10 cycles
 SCF Done:  E(RHF) =  -287.154509893     A.U. after   12 cycles
 SCF Done:  E(RHF) =  -287.155089866     A.U. after   13 cycles
 SCF Done:  E(RHF) =  -287.155155132     A.U. after   13 cycles
 SCF Done:  E(RHF) =  -287.155145356     A.U. after   11 cycles
 SCF Done:  E(RHF) =  -287.155158073     A.U. after    9 cycles
 SCF Done:  E(RHF) =  -287.155160961     A.U. after    7 cycles
 SCF Done:  E(RHF) =  -287.155146047     A.U. after   12 cycles
 SCF Done:  E(RHF) =  -287.155158480     A.U. after   10 cycles
 SCF Done:  E(RHF) =  -287.155164629     A.U. after    7 cycles
 SCF Done:  E(RHF) =  -287.155144799     A.U. after   11 cycles
 SCF Done:  E(RHF) =  -287.155171737     A.U. after   11 cycles
 SCF Done:  E(RHF) =  -287.155141717     A.U. after   11 cycles
 SCF Done:  E(RHF) =  -287.155174989     A.U. after   11 cycles
 SCF Done:  E(RHF) =  -287.155175120     A.U. after    7 cycles
 SCF Done:  E(RHF) =  -287.155175248     A.U. after    7 cycles
 SCF Done:  E(RHF) =  -287.155175343     A.U. after    7 cycles
 SCF Done:  E(RHF) =  -287.155175510     A.U. after    7 cycles
 SCF Done:  E(RHF) =  -287.155175731     A.U. after    7 cycles
 Optimization completed on the basis of negligible forces.
    -- Stationary point found.

                         Standard orientation:
 ---------------------------------------------------------------------
 Center     Atomic      Atomic             Coordinates (Angstroms)
 Number     Number       Type             X           Y           Z
 ---------------------------------------------------------------------
      1          7           0       -1.441165   -0.877751   -0.735887
      2          1           0       -0.737816   -0.880014   -1.478332
      3          6           0       -0.753461   -1.149078    0.534035
      4          1           0       -0.093525   -2.017472    0.437364
      5          1           0       -1.518076   -1.395323    1.278583
      6          6           0       -0.015390    0.148621    0.933271
      7          1           0        1.025813    0.113857    0.596943
      8          1           0        0.000864    0.294870    2.016994
      9          6           0       -0.792930    1.263785    0.194179
     10          1           0       -0.141814    1.787744   -0.512157
     11          1           0       -1.199633    2.016129    0.877210
     12          6           0       -1.906747    0.504705   -0.562770
     13          1           0       -2.162175    0.949327   -1.529065
     14          1           0       -2.821584    0.472900    0.039883
     15          8           0        3.743280    0.023125   -0.280851
     16          1           0        4.303968    0.758470   -0.528095
     17          1           0        4.297065   -0.749429   -0.393603
 ---------------------------------------------------------------------

 The electronic state is 1-A.
 Alpha  occ. eigenvalues --  -20.56894 -15.53154 -11.23342 -11.23148 -11.20777
 Alpha  occ. eigenvalues --  -11.20284  -1.34984  -1.20685  -1.00742  -0.95863
 Alpha  occ. eigenvalues --   -0.80412  -0.77174  -0.71498  -0.66516  -0.62596
 Alpha  occ. eigenvalues --   -0.58317  -0.57622  -0.57154  -0.50620  -0.49669
 Alpha  occ. eigenvalues --   -0.48279  -0.46836  -0.46454  -0.44435  -0.36329
 Alpha virt. eigenvalues --    0.19823   0.22839   0.25841   0.29667   0.29942
 Alpha virt. eigenvalues --    0.30633   0.31039   0.33452   0.34810   0.35719
 Alpha virt. eigenvalues --    0.37624   0.38762   0.42276   0.42720   0.49673

 Mulliken charges:
               1
     1  N   -0.660124
     2  H    0.323737
     3  C   -0.154289
     4  H    0.166361
     5  H    0.162752
     6  C   -0.362564
     7  H    0.202312
     8  H    0.160088
     9  C   -0.341816
    10  H    0.160859
    11  H    0.161928
    12  C   -0.154851
    13  H    0.164903
    14  H    0.164695
    15  O   -0.865913
    16  H    0.436004
    17  H    0.435917
 Sum of Mulliken charges =  -0.00000

 Dipole moment (field-independent basis, Debye):
    X=              3.6421    Y=              0.9092    Z=             -0.4664  Tot=              3.7827
 Quadrupole moment (field-independent basis, Debye-Ang):
   XX=            -25.1294   YY=            -38.7394   ZZ=            -38.2562
   XY=             -3.9378   XZ=             -5.9420   YZ=             -1.6680

 1\1\GINC-C401-072\FOpt\RHF\6-31G(d)\C4H11N1O1\TG455515\31-Mar-2021\1\\
 # HF/6-31G* Opt=(Z-matrix,MaxCycles=100) Geom=PrintInputOrient\\<qmtoo
 l> simtype="Geometry optimization" </qmtool> PRLD-DON-H31\\0,1\N,0,0.8
 439999819,0.4560000002,0.9229999781\H,0,1.371999979,0.4950000048,1.797
 9999781\C,0,1.6430000067,1.125,-0.112999998\H,0,2.,2.0969998837,0.2430
 000007\H,0,0.9869999886,1.307000041,-0.9710000157\C,0,2.7790000439,0.1
 529999971,-0.5040000081\H,0,3.6889998913,0.3840000033,0.0590000004\H,0
 ,3.0309998989,0.2220000029,-1.5659999847\C,0,2.2309999466,-1.240000009

 Normal termination of Gaussian 16 at Wed Mar 31 17:12:39 2021.
