 Gaussian 16, Revision A.03,
 Gaussian 16:  ES64L-G16RevA.03 25-Dec-2016

 --------------------------------------------------------------
 # HF/6-31G* Opt=(Z-matrix,MaxCycles=100) Geom=PrintInputOrient
 --------------------------------------------------------------

 ---------------------------------------------------------------
 <qmtool> simtype="Geometry optimization" </qmtool> PRLD-DON-H22
 ---------------------------------------------------------------
 Symbolic Z-matrix:
 Charge =  0 Multiplicity = 1

 SCF Done:  E(RHF) =  -287.150045787     A.U. after   12 cycles
 SCF Done:  E(RHF) =  -287.151968277     A.U. after   11 cycles
 SCF Done:  E(RHF) =  -287.153850656     A.U. after   12 cycles
 SCF Done:  E(RHF) =  -287.154518899     A.U. after   12 cycles
 SCF Done:  E(RHF) =  -287.154594737     A.U. after   12 cycles
 SCF Done:  E(RHF) =  -287.154602189     A.U. after    8 cycles
 SCF Done:  E(RHF) =  -287.154610193     A.U. after    8 cycles
 SCF Done:  E(RHF) =  -287.154617255     A.U. after    7 cycles
 SCF Done:  E(RHF) =  -287.154427830     A.U. after   11 cycles
 SCF Done:  E(RHF) =  -287.154633554     A.U. after   11 cycles
 SCF Done:  E(RHF) =  -287.154638754     A.U. after    9 cycles
 SCF Done:  E(RHF) =  -287.154641282     A.U. after    8 cycles
 SCF Done:  E(RHF) =  -287.154641467     A.U. after    6 cycles
 SCF Done:  E(RHF) =  -287.154641747     A.U. after    7 cycles
 SCF Done:  E(RHF) =  -287.154642045     A.U. after    7 cycles
 Optimization completed.
    -- Stationary point found.

                         Standard orientation:
 ---------------------------------------------------------------------
 Center     Atomic      Atomic             Coordinates (Angstroms)
 Number     Number       Type             X           Y           Z
 ---------------------------------------------------------------------
      1          7           0        0.776103   -1.054102    0.789659
      2          1           0        1.649847   -1.070236    1.320922
      3          6           0        0.138954    0.250865    1.014073
      4          1           0        0.109043    0.486711    2.082927
      5          1           0       -0.895565    0.179190    0.661569
      6          6           0        0.920945    1.284955    0.173056
      7          1           0        1.680914    1.779097    0.786815
      8          1           0        0.269112    2.067884   -0.224742
      9          6           0        1.581854    0.438343   -0.940885
     10          1           0        2.672479    0.508148   -0.885562
     11          1           0        1.288352    0.761573   -1.944548
     12          6           0        1.119474   -1.005300   -0.637799
     13          1           0        1.867391   -1.765772   -0.880615
     14          1           0        0.211517   -1.240112   -1.204903
     15          8           0       -3.574641   -0.006427   -0.251302
     16          1           0       -4.126288    0.695992   -0.595578
     17          1           0       -4.129760   -0.785526   -0.284147
 ---------------------------------------------------------------------

 The electronic state is 1-A.
 Alpha  occ. eigenvalues --  -20.56345 -15.52979 -11.23229 -11.22643 -11.20948
 Alpha  occ. eigenvalues --  -11.20766  -1.34434  -1.20526  -1.00906  -0.95751
 Alpha  occ. eigenvalues --   -0.80238  -0.77297  -0.70942  -0.66404  -0.62654
 Alpha  occ. eigenvalues --   -0.57951  -0.57696  -0.56845  -0.50064  -0.49505
 Alpha  occ. eigenvalues --   -0.48086  -0.46874  -0.46549  -0.44627  -0.36158
 Alpha virt. eigenvalues --    0.20404   0.22327   0.26214   0.29543   0.30107
 Alpha virt. eigenvalues --    0.30377   0.31796   0.33563   0.34850   0.36015
 Alpha virt. eigenvalues --    0.37471   0.39090   0.42095   0.42529   0.49597

 Mulliken charges:
               1
     1  N   -0.657592
     2  H    0.318065
     3  C   -0.176579
     4  H    0.161300
     5  H    0.209172
     6  C   -0.340892
     7  H    0.155383
     8  H    0.165522
     9  C   -0.341762
    10  H    0.156984
    11  H    0.164219
    12  C   -0.155465
    13  H    0.163304
    14  H    0.172190
    15  O   -0.864013
    16  H    0.433582
    17  H    0.436583
 Sum of Mulliken charges =  -0.00000

 Dipole moment (field-independent basis, Debye):
    X=             -1.5162    Y=              1.0123    Z=             -1.0779  Tot=              2.1179
 Quadrupole moment (field-independent basis, Debye-Ang):
   XX=            -20.4241   YY=            -40.1368   ZZ=            -38.6717
   XY=             -0.5539   XZ=              5.0007   YZ=              1.3644

 1\1\GINC-C403-123\FOpt\RHF\6-31G(d)\C4H11N1O1\TG455515\31-Mar-2021\1\\
 # HF/6-31G* Opt=(Z-matrix,MaxCycles=100) Geom=PrintInputOrient\\<qmtoo
 l> simtype="Geometry optimization" </qmtool> PRLD-DON-H22\\0,1\N,0,0.8
 439999819,0.4560000002,0.9229999781\H,0,1.371999979,0.4950000048,1.797
 9999781\C,0,1.6430000067,1.125,-0.112999998\H,0,2.,2.0969998837,0.2430
 000007\H,0,0.9869999886,1.307000041,-0.9710000157\C,0,2.7790000439,0.1
 529999971,-0.5040000081\H,0,3.6889998913,0.3840000033,0.0590000004\H,0
 ,3.0309998989,0.2220000029,-1.5659999847\C,0,2.2309999466,-1.240000009

 Normal termination of Gaussian 16 at Wed Mar 31 17:11:46 2021.
