 Gaussian 16, Revision A.03,
 Gaussian 16:  ES64L-G16RevA.03 25-Dec-2016

 --------------------------------------------------------------
 # HF/6-31G* Opt=(Z-matrix,MaxCycles=100) Geom=PrintInputOrient
 --------------------------------------------------------------

 ---------------------------------------------------------------
 <qmtool> simtype="Geometry optimization" </qmtool> PRLD-DON-H21
 ---------------------------------------------------------------
 Symbolic Z-matrix:
 Charge =  0 Multiplicity = 1

 SCF Done:  E(RHF) =  -287.150948187     A.U. after   12 cycles
 SCF Done:  E(RHF) =  -287.152757912     A.U. after   11 cycles
 SCF Done:  E(RHF) =  -287.154502359     A.U. after   11 cycles
 SCF Done:  E(RHF) =  -287.155099014     A.U. after   12 cycles
 SCF Done:  E(RHF) =  -287.155130978     A.U. after   12 cycles
 SCF Done:  E(RHF) =  -287.155149239     A.U. after   10 cycles
 SCF Done:  E(RHF) =  -287.155154097     A.U. after    7 cycles
 SCF Done:  E(RHF) =  -287.155058881     A.U. after   12 cycles
 SCF Done:  E(RHF) =  -287.155143848     A.U. after   12 cycles
 SCF Done:  E(RHF) =  -287.155154109     A.U. after    5 cycles
 SCF Done:  E(RHF) =  -287.155161134     A.U. after    8 cycles
 SCF Done:  E(RHF) =  -287.155165965     A.U. after    8 cycles
 SCF Done:  E(RHF) =  -287.155166140     A.U. after    7 cycles
 SCF Done:  E(RHF) =  -287.155166149     A.U. after    6 cycles
 Optimization completed.
    -- Stationary point found.

                         Standard orientation:
 ---------------------------------------------------------------------
 Center     Atomic      Atomic             Coordinates (Angstroms)
 Number     Number       Type             X           Y           Z
 ---------------------------------------------------------------------
      1          7           0       -0.530037   -1.190181   -0.040535
      2          1           0       -0.219446   -1.225462   -1.014300
      3          6           0        0.113504   -0.031327    0.593633
      4          1           0        1.188152   -0.024237    0.383749
      5          1           0       -0.011806   -0.134673    1.676795
      6          6           0       -0.625108    1.227902    0.086726
      7          1           0       -0.097387    1.660706   -0.769206
      8          1           0       -0.686065    2.004858    0.854016
      9          6           0       -2.016571    0.700207   -0.337286
     10          1           0       -2.186246    0.868479   -1.405129
     11          1           0       -2.833916    1.190783    0.200526
     12          6           0       -1.950165   -0.814504   -0.035615
     13          1           0       -2.513757   -1.428263   -0.744361
     14          1           0       -2.343383   -1.019624    0.966600
     15          8           0        3.913414   -0.006256   -0.148509
     16          1           0        4.461357    0.745472   -0.374111
     17          1           0        4.515483   -0.750395   -0.147510
 ---------------------------------------------------------------------

 The electronic state is 1-A.
 Alpha  occ. eigenvalues --  -20.56658 -15.52960 -11.23312 -11.22592 -11.20975
 Alpha  occ. eigenvalues --  -11.20757  -1.34744  -1.20527  -1.00920  -0.95750
 Alpha  occ. eigenvalues --   -0.80288  -0.77297  -0.71252  -0.66330  -0.62693
 Alpha  occ. eigenvalues --   -0.57959  -0.57842  -0.57173  -0.50380  -0.49381
 Alpha  occ. eigenvalues --   -0.48221  -0.46889  -0.46381  -0.44724  -0.36202
 Alpha virt. eigenvalues --    0.20118   0.22704   0.25677   0.29608   0.30046
 Alpha virt. eigenvalues --    0.30140   0.31372   0.34049   0.34908   0.36565
 Alpha virt. eigenvalues --    0.37425   0.38841   0.42061   0.42653   0.49642

 Mulliken charges:
               1
     1  N   -0.658351
     2  H    0.322085
     3  C   -0.179158
     4  H    0.212462
     5  H    0.160797
     6  C   -0.341691
     7  H    0.159675
     8  H    0.162999
     9  C   -0.342643
    10  H    0.157853
    11  H    0.163385
    12  C   -0.153913
    13  H    0.164573
    14  H    0.164940
    15  O   -0.865050
    16  H    0.434935
    17  H    0.437102
 Sum of Mulliken charges =  -0.00000

 Dipole moment (field-independent basis, Debye):
    X=              2.3185    Y=              1.3084    Z=             -1.2161  Tot=              2.9268
 Quadrupole moment (field-independent basis, Debye-Ang):
   XX=            -19.2847   YY=            -41.1327   ZZ=            -37.9243
   XY=              0.0233   XZ=             -2.4444   YZ=              1.4332

 1\1\GINC-C401-052\FOpt\RHF\6-31G(d)\C4H11N1O1\TG455515\31-Mar-2021\1\\
 # HF/6-31G* Opt=(Z-matrix,MaxCycles=100) Geom=PrintInputOrient\\<qmtoo
 l> simtype="Geometry optimization" </qmtool> PRLD-DON-H21\\0,1\N,0,0.8
 439999819,0.4560000002,0.9229999781\H,0,1.371999979,0.4950000048,1.797
 9999781\C,0,1.6430000067,1.125,-0.112999998\H,0,2.,2.0969998837,0.2430
 000007\H,0,0.9869999886,1.307000041,-0.9710000157\C,0,2.7790000439,0.1
 529999971,-0.5040000081\H,0,3.6889998913,0.3840000033,0.0590000004\H,0
 ,3.0309998989,0.2220000029,-1.5659999847\C,0,2.2309999466,-1.240000009

 Normal termination of Gaussian 16 at Wed Mar 31 17:10:51 2021.
