 Gaussian 16, Revision A.03,
 Gaussian 16:  ES64L-G16RevA.03 25-Dec-2016

 --------------------------------------------------------------
 # HF/6-31G* Opt=(Z-matrix,MaxCycles=100) Geom=PrintInputOrient
 --------------------------------------------------------------

 --------------------------------------------------------------
 <qmtool> simtype="Geometry optimization" </qmtool> PRLD-DON-H1
 --------------------------------------------------------------
 Symbolic Z-matrix:
 Charge =  0 Multiplicity = 1

 SCF Done:  E(RHF) =  -287.156255488     A.U. after   11 cycles
 SCF Done:  E(RHF) =  -287.156701647     A.U. after   11 cycles
 SCF Done:  E(RHF) =  -287.157288062     A.U. after   12 cycles
 SCF Done:  E(RHF) =  -287.157449394     A.U. after    9 cycles
 SCF Done:  E(RHF) =  -287.157530375     A.U. after   12 cycles
 SCF Done:  E(RHF) =  -287.157633257     A.U. after   11 cycles
 SCF Done:  E(RHF) =  -287.157652173     A.U. after    9 cycles
 SCF Done:  E(RHF) =  -287.157653424     A.U. after    8 cycles
 SCF Done:  E(RHF) =  -287.157653482     A.U. after    7 cycles
 Optimization completed.
    -- Stationary point found.

                         Standard orientation:
 ---------------------------------------------------------------------
 Center     Atomic      Atomic             Coordinates (Angstroms)
 Number     Number       Type             X           Y           Z
 ---------------------------------------------------------------------
      1          7           0        0.017902   -0.003355   -1.114663
      2          1           0       -0.912689   -0.002157   -0.690482
      3          6           0        0.757870    1.146006   -0.575523
      4          1           0        0.153256    2.056885   -0.636432
      5          1           0        1.643343    1.293569   -1.203047
      6          6           0        1.177844    0.776291    0.864996
      7          1           0        0.451450    1.165512    1.585613
      8          1           0        2.151717    1.197750    1.129668
      9          6           0        1.178426   -0.771094    0.869064
     10          1           0        0.452791   -1.157270    1.591364
     11          1           0        2.153634   -1.190343    1.135819
     12          6           0        0.758177   -1.149210   -0.569749
     13          1           0        0.154714   -2.059901   -0.625686
     14          1           0        1.644249   -1.299446   -1.196994
     15          8           0       -3.018546    0.000556    0.269409
     16          1           0       -3.237701    0.004149    1.201176
     17          1           0       -3.865613   -0.001664   -0.176353
 ---------------------------------------------------------------------

 The electronic state is 1-A.
 Alpha  occ. eigenvalues --  -20.57727 -15.51815 -11.22769 -11.22765 -11.20744
 Alpha  occ. eigenvalues --  -11.20689  -1.35809  -1.19836  -1.00573  -0.95508
 Alpha  occ. eigenvalues --   -0.79879  -0.77086  -0.72285  -0.66066  -0.62381
 Alpha  occ. eigenvalues --   -0.59420  -0.57138  -0.56984  -0.51455  -0.49015
 Alpha  occ. eigenvalues --   -0.47626  -0.46655  -0.46325  -0.44571  -0.35429
 Alpha virt. eigenvalues --    0.18900   0.24069   0.25976   0.29215   0.30137
 Alpha virt. eigenvalues --    0.30779   0.33735   0.34545   0.35003   0.35308
 Alpha virt. eigenvalues --    0.37634   0.39640   0.41766   0.44819   0.49731

 Mulliken charges:
               1
     1  N   -0.690795
     2  H    0.376883
     3  C   -0.151131
     4  H    0.165076
     5  H    0.159280
     6  C   -0.339545
     7  H    0.156067
     8  H    0.160888
     9  C   -0.339697
    10  H    0.156220
    11  H    0.160652
    12  C   -0.151006
    13  H    0.165304
    14  H    0.159056
    15  O   -0.870074
    16  H    0.439589
    17  H    0.443233
 Sum of Mulliken charges =  -0.00000

 Dipole moment (field-independent basis, Debye):
    X=             -2.5661    Y=              0.0068    Z=              2.4765  Tot=              3.5662
 Quadrupole moment (field-independent basis, Debye-Ang):
   XX=            -23.0627   YY=            -39.0011   ZZ=            -41.5836
   XY=             -0.0029   XZ=             -3.5864   YZ=             -0.0024

 1\1\GINC-C403-073\FOpt\RHF\6-31G(d)\C4H11N1O1\TG455515\31-Mar-2021\1\\
 # HF/6-31G* Opt=(Z-matrix,MaxCycles=100) Geom=PrintInputOrient\\<qmtoo
 l> simtype="Geometry optimization" </qmtool> PRLD-DON-H1\\0,1\N,0,0.84
 39999819,0.4560000002,0.9229999781\H,0,1.371999979,0.4950000048,1.7979
 999781\C,0,1.6430000067,1.125,-0.112999998\H,0,2.,2.0969998837,0.24300
 00007\H,0,0.9869999886,1.307000041,-0.9710000157\C,0,2.7790000439,0.15
 29999971,-0.5040000081\H,0,3.6889998913,0.3840000033,0.0590000004\H,0,
 3.0309998989,0.2220000029,-1.5659999847\C,0,2.2309999466,-1.2400000095

 Normal termination of Gaussian 16 at Wed Mar 31 17:10:15 2021.
