 Gaussian 16, Revision A.03,
 Gaussian 16:  ES64L-G16RevA.03 25-Dec-2016

 --------------------------------------------------------------
 # HF/6-31G* Opt=(Z-matrix,MaxCycles=100) Geom=PrintInputOrient
 --------------------------------------------------------------

 ---------------------------------------------------------------
 <qmtool> simtype="Geometry optimization" </qmtool> PRLD-DON-H41
 ---------------------------------------------------------------
 Symbolic Z-matrix:
 Charge =  0 Multiplicity = 1

 SCF Done:  E(RHF) =  -287.150373018     A.U. after   12 cycles
 SCF Done:  E(RHF) =  -287.152391841     A.U. after   10 cycles
 SCF Done:  E(RHF) =  -287.154511235     A.U. after   12 cycles
 SCF Done:  E(RHF) =  -287.155086730     A.U. after   13 cycles
 SCF Done:  E(RHF) =  -287.155155408     A.U. after   13 cycles
 SCF Done:  E(RHF) =  -287.155144613     A.U. after   12 cycles
 SCF Done:  E(RHF) =  -287.155158634     A.U. after    8 cycles
 SCF Done:  E(RHF) =  -287.155063793     A.U. after   12 cycles
 SCF Done:  E(RHF) =  -287.155172524     A.U. after   12 cycles
 SCF Done:  E(RHF) =  -287.155169722     A.U. after   10 cycles
 SCF Done:  E(RHF) =  -287.155175996     A.U. after    7 cycles
 SCF Done:  E(RHF) =  -287.155176165     A.U. after    7 cycles
 SCF Done:  E(RHF) =  -287.155176408     A.U. after    7 cycles
 SCF Done:  E(RHF) =  -287.155176591     A.U. after    7 cycles
 Optimization completed on the basis of negligible forces.
    -- Stationary point found.

                         Standard orientation:
 ---------------------------------------------------------------------
 Center     Atomic      Atomic             Coordinates (Angstroms)
 Number     Number       Type             X           Y           Z
 ---------------------------------------------------------------------
      1          7           0        1.441177   -0.877666   -0.736317
      2          1           0        0.738295   -0.878701   -1.479207
      3          6           0        1.907101    0.504988   -0.561841
      4          1           0        2.163085    0.950598   -1.528729
      5          1           0        2.821303    0.472773    0.040506
      6          6           0        0.793630    1.263858    0.194770
      7          1           0        0.142084    1.788329   -0.511522
      8          1           0        1.199978    2.015538    0.877388
      9          6           0        0.015840    0.148382    0.933130
     10          1           0       -1.024995    0.113798    0.597183
     11          1           0        0.000122    0.294228    2.017769
     12          6           0        0.753388   -1.149906    0.532837
     13          1           0        0.093812   -2.017176    0.435572
     14          1           0        1.518484   -1.396974    1.277629
     15          8           0       -3.744560    0.023436   -0.280601
     16          1           0       -4.301073   -0.748290   -0.385312
     17          1           0       -4.302608    0.758128   -0.535632
 ---------------------------------------------------------------------

 The electronic state is 1-A.
 Alpha  occ. eigenvalues --  -20.56893 -15.53154 -11.23347 -11.23145 -11.20773
 Alpha  occ. eigenvalues --  -11.20291  -1.34983  -1.20686  -1.00744  -0.95863
 Alpha  occ. eigenvalues --   -0.80413  -0.77176  -0.71497  -0.66517  -0.62598
 Alpha  occ. eigenvalues --   -0.58315  -0.57622  -0.57156  -0.50619  -0.49670
 Alpha  occ. eigenvalues --   -0.48281  -0.46834  -0.46457  -0.44439  -0.36330
 Alpha virt. eigenvalues --    0.19825   0.22837   0.25839   0.29665   0.29940
 Alpha virt. eigenvalues --    0.30634   0.31038   0.33452   0.34803   0.35720
 Alpha virt. eigenvalues --    0.37624   0.38761   0.42268   0.42723   0.49671

 Mulliken charges:
               1
     1  N   -0.660119
     2  H    0.323745
     3  C   -0.154959
     4  H    0.164668
     5  H    0.164915
     6  C   -0.341674
     7  H    0.160708
     8  H    0.162175
     9  C   -0.362633
    10  H    0.202348
    11  H    0.159867
    12  C   -0.154185
    13  H    0.166615
    14  H    0.162536
    15  O   -0.865922
    16  H    0.435920
    17  H    0.435993
 Sum of Mulliken charges =  -0.00000

 Dipole moment (field-independent basis, Debye):
    X=             -3.6412    Y=              0.9098    Z=             -0.4654  Tot=              3.7819
 Quadrupole moment (field-independent basis, Debye-Ang):
   XX=            -25.1209   YY=            -38.7386   ZZ=            -38.2598
   XY=              3.9495   XZ=              5.9444   YZ=             -1.6986

 1\1\GINC-C402-052\FOpt\RHF\6-31G(d)\C4H11N1O1\TG455515\31-Mar-2021\1\\
 # HF/6-31G* Opt=(Z-matrix,MaxCycles=100) Geom=PrintInputOrient\\<qmtoo
 l> simtype="Geometry optimization" </qmtool> PRLD-DON-H41\\0,1\N,0,0.8
 439999819,0.4560000002,0.9229999781\H,0,1.371999979,0.4950000048,1.797
 9999781\C,0,1.6430000067,1.125,-0.112999998\H,0,2.,2.0969998837,0.2430
 000007\H,0,0.9869999886,1.307000041,-0.9710000157\C,0,2.7790000439,0.1
 529999971,-0.5040000081\H,0,3.6889998913,0.3840000033,0.0590000004\H,0
 ,3.0309998989,0.2220000029,-1.5659999847\C,0,2.2309999466,-1.240000009

 Normal termination of Gaussian 16 at Wed Mar 31 17:11:05 2021.
