 Gaussian 16, Revision A.03,
 Gaussian 16:  ES64L-G16RevA.03 25-Dec-2016

 --------------------------------------------------------------
 # HF/6-31G* Opt=(Z-matrix,MaxCycles=100) Geom=PrintInputOrient
 --------------------------------------------------------------

 ---------------------------------------------------------------
 <qmtool> simtype="Geometry optimization" </qmtool> PRLD-DON-H32
 ---------------------------------------------------------------
 Symbolic Z-matrix:
 Charge =  0 Multiplicity = 1

 SCF Done:  E(RHF) =  -287.150351846     A.U. after   12 cycles
 SCF Done:  E(RHF) =  -287.152295471     A.U. after    9 cycles
 SCF Done:  E(RHF) =  -287.154248729     A.U. after   12 cycles
 SCF Done:  E(RHF) =  -287.155011131     A.U. after   13 cycles
 SCF Done:  E(RHF) =  -287.154999091     A.U. after   13 cycles
 SCF Done:  E(RHF) =  -287.155009993     A.U. after   10 cycles
 SCF Done:  E(RHF) =  -287.155011799     A.U. after    8 cycles
 SCF Done:  E(RHF) =  -287.155012716     A.U. after   12 cycles
 SCF Done:  E(RHF) =  -287.155015919     A.U. after   10 cycles
 SCF Done:  E(RHF) =  -287.155016177     A.U. after    7 cycles
 SCF Done:  E(RHF) =  -287.155016258     A.U. after    7 cycles
 Optimization completed.
    -- Stationary point found.

                         Standard orientation:
 ---------------------------------------------------------------------
 Center     Atomic      Atomic             Coordinates (Angstroms)
 Number     Number       Type             X           Y           Z
 ---------------------------------------------------------------------
      1          7           0        2.032006   -0.705403   -0.248724
      2          1           0        2.555463   -0.716956    0.629791
      3          6           0        0.678850   -1.206492    0.029009
      4          1           0        0.722790   -2.138011    0.602864
      5          1           0        0.205389   -1.431814   -0.932599
      6          6           0       -0.083566   -0.070985    0.748388
      7          1           0       -0.031711   -0.204923    1.833654
      8          1           0       -1.142714   -0.051148    0.476503
      9          6           0        0.665037    1.213218    0.318464
     10          1           0        1.091816    1.722729    1.187747
     11          1           0        0.011893    1.930955   -0.187713
     12          6           0        1.789778    0.698083   -0.608551
     13          1           0        2.714535    1.278523   -0.540942
     14          1           0        1.460237    0.719774   -1.653568
     15          8           0       -3.897755    0.000450   -0.230723
     16          1           0       -4.603555    0.485009    0.197390
     17          1           0       -4.326734   -0.462857   -0.950137
 ---------------------------------------------------------------------

 The electronic state is 1-A.
 Alpha  occ. eigenvalues --  -20.56719 -15.53185 -11.23345 -11.23156 -11.20763
 Alpha  occ. eigenvalues --  -11.20285  -1.34808  -1.20719  -1.00741  -0.95871
 Alpha  occ. eigenvalues --   -0.80432  -0.77171  -0.71322  -0.66558  -0.62530
 Alpha  occ. eigenvalues --   -0.57970  -0.57761  -0.57291  -0.50440  -0.49658
 Alpha  occ. eigenvalues --   -0.48234  -0.46707  -0.46482  -0.44573  -0.36351
 Alpha virt. eigenvalues --    0.20093   0.22331   0.26288   0.29586   0.29935
 Alpha virt. eigenvalues --    0.30322   0.31386   0.33838   0.34862   0.35208
 Alpha virt. eigenvalues --    0.37742   0.38793   0.42336   0.42736   0.49671

 Mulliken charges:
               1
     1  N   -0.658976
     2  H    0.320604
     3  C   -0.155620
     4  H    0.164693
     5  H    0.166443
     6  C   -0.362460
     7  H    0.153328
     8  H    0.209059
     9  C   -0.342028
    10  H    0.155886
    11  H    0.167770
    12  C   -0.155574
    13  H    0.164825
    14  H    0.165884
    15  O   -0.865264
    16  H    0.435655
    17  H    0.435776
 Sum of Mulliken charges =  -0.00000

 Dipole moment (field-independent basis, Debye):
    X=             -3.2139    Y=              0.8251    Z=              0.5595  Tot=              3.3649
 Quadrupole moment (field-independent basis, Debye-Ang):
   XX=            -23.0859   YY=            -39.5302   ZZ=            -37.6260
   XY=              2.2870   XZ=              6.5985   YZ=             -0.5223

 1\1\GINC-C405-013\FOpt\RHF\6-31G(d)\C4H11N1O1\TG455515\31-Mar-2021\1\\
 # HF/6-31G* Opt=(Z-matrix,MaxCycles=100) Geom=PrintInputOrient\\<qmtoo
 l> simtype="Geometry optimization" </qmtool> PRLD-DON-H32\\0,1\N,0,0.8
 439999819,0.4560000002,0.9229999781\H,0,1.371999979,0.4950000048,1.797
 9999781\C,0,1.6430000067,1.125,-0.112999998\H,0,2.,2.0969998837,0.2430
 000007\H,0,0.9869999886,1.307000041,-0.9710000157\C,0,2.7790000439,0.1
 529999971,-0.5040000081\H,0,3.6889998913,0.3840000033,0.0590000004\H,0
 ,3.0309998989,0.2220000029,-1.5659999847\C,0,2.2309999466,-1.240000009

 Normal termination of Gaussian 16 at Wed Mar 31 17:10:47 2021.
