 Gaussian 16, Revision A.03,
 Gaussian 16:  ES64L-G16RevA.03 25-Dec-2016

 --------------------------------------------------------------
 # HF/6-31G* Opt=(Z-matrix,MaxCycles=100) Geom=PrintInputOrient
 --------------------------------------------------------------

 ---------------------------------------------------------------
 <qmtool> simtype="Geometry optimization" </qmtool> PRLD-DON-H51
 ---------------------------------------------------------------
 Symbolic Z-matrix:
 Charge =  0 Multiplicity = 1

 SCF Done:  E(RHF) =  -287.150521532     A.U. after   12 cycles
 SCF Done:  E(RHF) =  -287.152416030     A.U. after    9 cycles
 SCF Done:  E(RHF) =  -287.154296645     A.U. after   11 cycles
 SCF Done:  E(RHF) =  -287.155101567     A.U. after   12 cycles
 SCF Done:  E(RHF) =  -287.155125016     A.U. after   12 cycles
 SCF Done:  E(RHF) =  -287.155133429     A.U. after   10 cycles
 SCF Done:  E(RHF) =  -287.155137906     A.U. after    7 cycles
 SCF Done:  E(RHF) =  -287.154997938     A.U. after   11 cycles
 SCF Done:  E(RHF) =  -287.155157466     A.U. after   11 cycles
 SCF Done:  E(RHF) =  -287.155169162     A.U. after    9 cycles
 SCF Done:  E(RHF) =  -287.155169407     A.U. after    7 cycles
 Optimization completed.
    -- Stationary point found.

                         Standard orientation:
 ---------------------------------------------------------------------
 Center     Atomic      Atomic             Coordinates (Angstroms)
 Number     Number       Type             X           Y           Z
 ---------------------------------------------------------------------
      1          7           0        0.529569   -1.190069   -0.040374
      2          1           0        0.219629   -1.225588   -1.014338
      3          6           0        1.950097   -0.814125   -0.035338
      4          1           0        2.514166   -1.428601   -0.744714
      5          1           0        2.343268   -1.019079    0.966178
      6          6           0        2.016821    0.699957   -0.337438
      7          1           0        2.186063    0.868408   -1.405807
      8          1           0        2.833966    1.190083    0.199366
      9          6           0        0.625469    1.227791    0.086765
     10          1           0        0.097636    1.660639   -0.768472
     11          1           0        0.687075    2.005017    0.854935
     12          6           0       -0.113944   -0.031648    0.593561
     13          1           0       -1.187546   -0.024411    0.383837
     14          1           0        0.011574   -0.135238    1.677370
     15          8           0       -3.913347   -0.006035   -0.148638
     16          1           0       -4.515227   -0.750329   -0.149189
     17          1           0       -4.461470    0.746011   -0.372737
 ---------------------------------------------------------------------

 The electronic state is 1-A.
 Alpha  occ. eigenvalues --  -20.56658 -15.52960 -11.23316 -11.22590 -11.20971
 Alpha  occ. eigenvalues --  -11.20762  -1.34745  -1.20527  -1.00921  -0.95750
 Alpha  occ. eigenvalues --   -0.80288  -0.77297  -0.71252  -0.66329  -0.62694
 Alpha  occ. eigenvalues --   -0.57959  -0.57841  -0.57174  -0.50381  -0.49382
 Alpha  occ. eigenvalues --   -0.48223  -0.46873  -0.46397  -0.44725  -0.36202
 Alpha virt. eigenvalues --    0.20119   0.22701   0.25676   0.29608   0.30046
 Alpha virt. eigenvalues --    0.30139   0.31370   0.34043   0.34905   0.36573
 Alpha virt. eigenvalues --    0.37427   0.38842   0.42056   0.42660   0.49642

 Mulliken charges:
               1
     1  N   -0.658342
     2  H    0.322084
     3  C   -0.154028
     4  H    0.164339
     5  H    0.165156
     6  C   -0.342499
     7  H    0.157722
     8  H    0.163619
     9  C   -0.341852
    10  H    0.159821
    11  H    0.162767
    12  C   -0.178981
    13  H    0.212624
    14  H    0.160583
    15  O   -0.865055
    16  H    0.437103
    17  H    0.434940
 Sum of Mulliken charges =  -0.00000

 Dipole moment (field-independent basis, Debye):
    X=             -2.3177    Y=              1.3085    Z=             -1.2163  Tot=              2.9263
 Quadrupole moment (field-independent basis, Debye-Ang):
   XX=            -19.2778   YY=            -41.1344   ZZ=            -37.9293
   XY=             -0.0227   XZ=              2.4499   YZ=              1.4354

 1\1\GINC-C402-092\FOpt\RHF\6-31G(d)\C4H11N1O1\TG455515\31-Mar-2021\1\\
 # HF/6-31G* Opt=(Z-matrix,MaxCycles=100) Geom=PrintInputOrient\\<qmtoo
 l> simtype="Geometry optimization" </qmtool> PRLD-DON-H51\\0,1\N,0,0.8
 439999819,0.4560000002,0.9229999781\H,0,1.371999979,0.4950000048,1.797
 9999781\C,0,1.6430000067,1.125,-0.112999998\H,0,2.,2.0969998837,0.2430
 000007\H,0,0.9869999886,1.307000041,-0.9710000157\C,0,2.7790000439,0.1
 529999971,-0.5040000081\H,0,3.6889998913,0.3840000033,0.0590000004\H,0
 ,3.0309998989,0.2220000029,-1.5659999847\C,0,2.2309999466,-1.240000009

 Normal termination of Gaussian 16 at Wed Mar 31 17:10:23 2021.
