 Gaussian 16, Revision A.03,
 Gaussian 16:  ES64L-G16RevA.03 25-Dec-2016

 --------------------------------------------------------------
 # HF/6-31G* Opt=(Z-matrix,MaxCycles=100) Geom=PrintInputOrient
 --------------------------------------------------------------

 --------------------------------------------------------------
 <qmtool> simtype="Geometry optimization" </qmtool> PRLD-ACC-N1
 --------------------------------------------------------------
 Symbolic Z-matrix:
 Charge =  0 Multiplicity = 1

 SCF Done:  E(RHF) =  -287.163965799     A.U. after   12 cycles
 SCF Done:  E(RHF) =  -287.164027503     A.U. after    8 cycles
 SCF Done:  E(RHF) =  -287.164082514     A.U. after    8 cycles
 SCF Done:  E(RHF) =  -287.164083780     A.U. after    7 cycles
 Optimization completed.
    -- Stationary point found.

                         Standard orientation:
 ---------------------------------------------------------------------
 Center     Atomic      Atomic             Coordinates (Angstroms)
 Number     Number       Type             X           Y           Z
 ---------------------------------------------------------------------
      1          7           0       -0.385062   -0.000103    0.486146
      2          1           0       -0.232040    0.000295    1.497340
      3          6           0        0.339310    1.147493   -0.077385
      4          1           0        0.117593    2.058769    0.487758
      5          1           0       -0.021228    1.296430   -1.100837
      6          6           0        1.838754    0.773674   -0.086804
      7          1           0        2.333872    1.161203    0.809359
      8          1           0        2.361245    1.194031   -0.950756
      9          6           0        1.838589   -0.773716   -0.086834
     10          1           0        2.333411   -1.161587    0.808768
     11          1           0        2.361147   -1.194071   -0.951817
     12          6           0        0.338663   -1.147730   -0.076965
     13          1           0        0.117056   -2.058032    0.487745
     14          1           0       -0.022258   -1.296592   -1.101028
     15          1           0       -2.397030    0.000077   -0.017166
     16          8           0       -3.325616    0.000159   -0.249460
     17          1           0       -3.783304    0.000598    0.591226
 ---------------------------------------------------------------------

 The electronic state is 1-A.
 Alpha  occ. eigenvalues --  -20.51426 -15.56407 -11.25454 -11.25450 -11.22849
 Alpha  occ. eigenvalues --  -11.22793  -1.30028  -1.23505  -1.03199  -0.98129
 Alpha  occ. eigenvalues --   -0.82808  -0.79478  -0.68945  -0.67378  -0.64510
 Alpha  occ. eigenvalues --   -0.60279  -0.59618  -0.53410  -0.52199  -0.50570
 Alpha  occ. eigenvalues --   -0.49007  -0.48681  -0.46748  -0.45682  -0.39461
 Alpha virt. eigenvalues --    0.19907   0.23454   0.25946   0.28154   0.28218
 Alpha virt. eigenvalues --    0.29173   0.31670   0.32837   0.33172   0.35166
 Alpha virt. eigenvalues --    0.36491   0.39650   0.40006   0.43935   0.47334

 Mulliken charges:
               1
     1  N   -0.705685
     2  H    0.334245
     3  C   -0.156344
     4  H    0.176388
     5  H    0.182255
     6  C   -0.344509
     7  H    0.165286
     8  H    0.175248
     9  C   -0.344651
    10  H    0.165417
    11  H    0.175031
    12  C   -0.156255
    13  H    0.176609
    14  H    0.182061
    15  H    0.494833
    16  O   -0.933352
    17  H    0.413424
 Sum of Mulliken charges =  -0.00000

 Dipole moment (field-independent basis, Debye):
    X=              3.2643    Y=              0.0007    Z=              2.3471  Tot=              4.0205
 Quadrupole moment (field-independent basis, Debye-Ang):
   XX=            -47.7851   YY=            -38.1944   ZZ=            -36.0760
   XY=              0.0004   XZ=             -7.2776   YZ=             -0.0025

 1\1\GINC-C401-011\FOpt\RHF\6-31G(d)\C4H11N1O1\TG455515\31-Mar-2021\1\\
 # HF/6-31G* Opt=(Z-matrix,MaxCycles=100) Geom=PrintInputOrient\\<qmtoo
 l> simtype="Geometry optimization" </qmtool> PRLD-ACC-N1\\0,1\N,0,0.84
 39999819,0.4560000002,0.9229999781\H,0,1.371999979,0.4950000048,1.7979
 999781\C,0,1.6430000067,1.125,-0.112999998\H,0,2.,2.0969998837,0.24300
 00007\H,0,0.9869999886,1.307000041,-0.9710000157\C,0,2.7790000439,0.15
 29999971,-0.5040000081\H,0,3.6889998913,0.3840000033,0.0590000004\H,0,
 3.0309998989,0.2220000029,-1.5659999847\C,0,2.2309999466,-1.2400000095

 Normal termination of Gaussian 16 at Wed Mar 31 17:08:19 2021.
