 Gaussian 16, Revision A.03,
 Gaussian 16:  ES64L-G16RevA.03 25-Dec-2016

 --------------------------------------------------------------
 # HF/6-31G* Opt=(Z-matrix,MaxCycles=100) Geom=PrintInputOrient
 --------------------------------------------------------------

 ---------------------------------------------------------------
 <qmtool> simtype="Geometry optimization" </qmtool> PRLD-DON-H52
 ---------------------------------------------------------------
 Symbolic Z-matrix:
 Charge =  0 Multiplicity = 1

 SCF Done:  E(RHF) =  -287.149640225     A.U. after   12 cycles
 SCF Done:  E(RHF) =  -287.151593548     A.U. after   10 cycles
 SCF Done:  E(RHF) =  -287.153700419     A.U. after   12 cycles
 SCF Done:  E(RHF) =  -287.154630505     A.U. after   13 cycles
 SCF Done:  E(RHF) =  -287.154482872     A.U. after   13 cycles
 SCF Done:  E(RHF) =  -287.154593714     A.U. after   10 cycles
 SCF Done:  E(RHF) =  -287.154605090     A.U. after    8 cycles
 SCF Done:  E(RHF) =  -287.154614479     A.U. after    8 cycles
 SCF Done:  E(RHF) =  -287.154630506     A.U. after    5 cycles
 SCF Done:  E(RHF) =  -287.154631437     A.U. after    7 cycles
 SCF Done:  E(RHF) =  -287.154631684     A.U. after    8 cycles
 SCF Done:  E(RHF) =  -287.154632844     A.U. after    7 cycles
 SCF Done:  E(RHF) =  -287.154633811     A.U. after    7 cycles
 SCF Done:  E(RHF) =  -287.154618032     A.U. after   10 cycles
 SCF Done:  E(RHF) =  -287.154638270     A.U. after   10 cycles
 SCF Done:  E(RHF) =  -287.154639155     A.U. after    8 cycles
 Optimization completed on the basis of negligible forces.
    -- Stationary point found.

                         Standard orientation:
 ---------------------------------------------------------------------
 Center     Atomic      Atomic             Coordinates (Angstroms)
 Number     Number       Type             X           Y           Z
 ---------------------------------------------------------------------
      1          7           0       -0.776249   -1.053595    0.790331
      2          1           0       -1.650388   -1.070206    1.320929
      3          6           0       -1.119395   -1.005112   -0.637660
      4          1           0       -1.867706   -1.766693   -0.880545
      5          1           0       -0.211964   -1.239701   -1.204371
      6          6           0       -1.582539    0.437615   -0.941302
      7          1           0       -2.673626    0.507381   -0.885683
      8          1           0       -1.289844    0.760196   -1.944487
      9          6           0       -0.921900    1.284839    0.172333
     10          1           0       -1.681411    1.779052    0.785759
     11          1           0       -0.269527    2.067998   -0.226454
     12          6           0       -0.139680    0.251167    1.014602
     13          1           0       -0.110101    0.487240    2.082334
     14          1           0        0.895525    0.179425    0.661993
     15          8           0        3.576707   -0.006389   -0.251263
     16          1           0        4.130464   -0.786290   -0.287844
     17          1           0        4.129756    0.696808   -0.591678
 ---------------------------------------------------------------------

 The electronic state is 1-A.
 Alpha  occ. eigenvalues --  -20.56343 -15.52980 -11.23234 -11.22641 -11.20944
 Alpha  occ. eigenvalues --  -11.20772  -1.34432  -1.20527  -1.00908  -0.95752
 Alpha  occ. eigenvalues --   -0.80239  -0.77298  -0.70940  -0.66404  -0.62656
 Alpha  occ. eigenvalues --   -0.57952  -0.57695  -0.56846  -0.50062  -0.49506
 Alpha  occ. eigenvalues --   -0.48088  -0.46866  -0.46558  -0.44628  -0.36158
 Alpha virt. eigenvalues --    0.20406   0.22325   0.26214   0.29542   0.30104
 Alpha virt. eigenvalues --    0.30377   0.31796   0.33559   0.34855   0.36003
 Alpha virt. eigenvalues --    0.37466   0.39090   0.42085   0.42532   0.49595

 Mulliken charges:
               1
     1  N   -0.657579
     2  H    0.318070
     3  C   -0.155565
     4  H    0.163072
     5  H    0.172384
     6  C   -0.341618
     7  H    0.156854
     8  H    0.164460
     9  C   -0.341049
    10  H    0.155526
    11  H    0.165308
    12  C   -0.176451
    13  H    0.161553
    14  H    0.208908
    15  O   -0.864019
    16  H    0.436568
    17  H    0.433578
 Sum of Mulliken charges =  -0.00000

 Dipole moment (field-independent basis, Debye):
    X=              1.5153    Y=              1.0119    Z=             -1.0783  Tot=              2.1173
 Quadrupole moment (field-independent basis, Debye-Ang):
   XX=            -20.4185   YY=            -40.1331   ZZ=            -38.6706
   XY=              0.5549   XZ=             -5.0031   YZ=              1.3798

 1\1\GINC-C405-061\FOpt\RHF\6-31G(d)\C4H11N1O1\TG455515\31-Mar-2021\1\\
 # HF/6-31G* Opt=(Z-matrix,MaxCycles=100) Geom=PrintInputOrient\\<qmtoo
 l> simtype="Geometry optimization" </qmtool> PRLD-DON-H52\\0,1\N,0,0.8
 439999819,0.4560000002,0.9229999781\H,0,1.371999979,0.4950000048,1.797
 9999781\C,0,1.6430000067,1.125,-0.112999998\H,0,2.,2.0969998837,0.2430
 000007\H,0,0.9869999886,1.307000041,-0.9710000157\C,0,2.7790000439,0.1
 529999971,-0.5040000081\H,0,3.6889998913,0.3840000033,0.0590000004\H,0
 ,3.0309998989,0.2220000029,-1.5659999847\C,0,2.2309999466,-1.240000009

 Normal termination of Gaussian 16 at Wed Mar 31 17:12:02 2021.
