 Gaussian 16, Revision A.03,
 Gaussian 16:  ES64L-G16RevA.03 25-Dec-2016

 ----------------------
 # RHF/6-31G* SCF=Tight
 ----------------------

 ------
 wat-sp
 ------
 Symbolic Z-matrix:
 Charge =  0 Multiplicity = 1

                         Standard orientation:
 ---------------------------------------------------------------------
 Center     Atomic      Atomic             Coordinates (Angstroms)
 Number     Number       Type             X           Y           Z
 ---------------------------------------------------------------------
      1          8           0       -0.000000    0.000000    0.117176
      2          1           0        0.000000    0.756950   -0.468706
      3          1           0       -0.000000   -0.756950   -0.468706
 ---------------------------------------------------------------------

 SCF Done:  E(RHF) =  -76.0105299763     A.U. after   10 cycles

 The electronic state is 1-A1.
 Alpha  occ. eigenvalues --  -20.56037  -1.34180  -0.70695  -0.57101  -0.49791
 Alpha virt. eigenvalues --    0.21075   0.30417   1.02267   1.13176   1.16779
 Alpha virt. eigenvalues --    1.17169   1.38087   1.43403   2.02014   2.03377
 Alpha virt. eigenvalues --    2.06780   2.62233   2.94733   3.97060

 Mulliken charges:
               1
     1  O   -0.866349
     2  H    0.433174
     3  H    0.433174
 Sum of Mulliken charges =   0.00000

 Dipole moment (field-independent basis, Debye):
    X=             -0.0000    Y=             -0.0000    Z=             -2.2248  Tot=              2.2248
 Quadrupole moment (field-independent basis, Debye-Ang):
   XX=             -7.2265   YY=             -4.1308   ZZ=             -5.9785
   XY=              0.0000   XZ=              0.0000   YZ=             -0.0000

 Normal termination of Gaussian 16 at Wed Mar 31 17:07:35 2021.
