                               Psi4 1.4rc2.dev14

  ==> Input File <==

--------------------------------------------------------------------------
memory 1GB

molecule mol {
0 1
N1       0.70899999       0.46399999       0.75800002
H2       0.88200003       0.66799998       1.72200000
C3       1.72599995       1.17299998      -0.11800000
H4       2.16199994       1.91499996       0.39100000
H5       1.27800000       1.55299997      -0.92699999
C6       2.76200008       0.13900000      -0.52800000
H7       3.62599993       0.31400001      -0.05500000
H8       2.91700006       0.18300000      -1.51499999
C9       2.22300005      -1.23300004      -0.14300001
H10       2.84400010      -1.67700005       0.50300002
H11       2.13400006      -1.80799997      -0.95599997
C12       0.86100000      -1.02600002       0.50099999
H13       0.80599999      -1.53199995       1.36199999
H14       0.13800000      -1.34599996      -0.11100000
}

set {
mp2_type df
}

optimize("MP2/6-31G*")
--------------------------------------------------------------------------

    Molecular point group: c1
  Charge       = 0
  Multiplicity = 1
  Basis Set: 6-31G*
    Blend: 6-31G*
  Basis Set: (6-31G* AUX)
    Blend: CC-PVDZ-JKFIT
  @DF-RHF Final Energy:  -211.08980505491908
    Total Energy =                       -211.0898050549190543
  Basis Set: (6-31G* AUX)
    Blend: CC-PVDZ-RI
    Molecular point group: c1
  Basis Set: 6-31G*
    Blend: 6-31G*
  Basis Set: (6-31G* AUX)
    Blend: CC-PVDZ-JKFIT
  Basis Set: (6-31G* AUX)
    Blend: CC-PVDZ-JKFIT
	 Reference Energy          =    -211.0898050549190827 [Eh]
	 Singles Energy            =      -0.0000000000000000 [Eh]
	 Same-Spin Energy          =      -0.1715498878629442 [Eh]
	 Opposite-Spin Energy      =      -0.5247138015914532 [Eh]
	 Correlation Energy        =      -0.6962636894543974 [Eh]
	 Total Energy              =    -211.7860687443734662 [Eh]
	 SCS Total Energy          =    -211.7766449127831550 [Eh]
  @DF-RHF Final Energy:  -211.13865374919183
    Total Energy =                       -211.1386537491918034
  @DF-RHF Final Energy:  -211.14122823133135
    Total Energy =                       -211.1412282313313540
  @DF-RHF Final Energy:  -211.14231972933752
    Total Energy =                       -211.1423197293375438
  @DF-RHF Final Energy:  -211.14280731482611
    Total Energy =                       -211.1428073148260864
  @DF-RHF Final Energy:  -211.14326063282442
    Total Energy =                       -211.1432606328244219
  @DF-RHF Final Energy:  -211.14334327023363
    Total Energy =                       -211.1433432702336290
  @DF-RHF Final Energy:  -211.14319814172262
    Total Energy =                       -211.1431981417226211
  @DF-RHF Final Energy:  -211.14319032728130
    Total Energy =                       -211.1431903272812747
  Charge       = 0
  Multiplicity = 1
  Basis Set: 6-31G*
    Blend: 6-31G*
  Basis Set: (6-31G* AUX)
    Blend: CC-PVDZ-JKFIT

    Orbital Energies [Eh]
    ---------------------

    Doubly Occupied:

       1A    -15.540529     2A    -11.241604     3A    -11.241585
       4A    -11.218149     5A    -11.217594     6A     -1.217568
       7A     -1.019722     8A     -0.969490     9A     -0.814339
      10A     -0.783378    11A     -0.675804    12A     -0.637474
      13A     -0.590011    14A     -0.584117    15A     -0.506506
      16A     -0.492964    17A     -0.479573    18A     -0.476475
      19A     -0.457153    20A     -0.372773

  @DF-RHF Final Energy:  -211.14318836027201

   => Energetics <=

    Nuclear Repulsion Energy =            190.1828038488323784
    One-Electron Energy =                -661.5783666833832513
    Two-Electron Energy =                 260.2523744742788949
    Total Energy =                       -211.1431883602720063

  Dipole Moment: [D]
     X:     1.4372      Y:    -0.5827      Z:    -0.0614     Total:     1.5521

  Basis Set: (6-31G* AUX)
    Blend: CC-PVDZ-RI
    Molecular point group: c1
  Basis Set: 6-31G*
    Blend: 6-31G*
  Basis Set: (6-31G* AUX)
    Blend: CC-PVDZ-JKFIT
  Basis Set: (6-31G* AUX)
    Blend: CC-PVDZ-JKFIT
	 Reference Energy          =    -211.1431883602720063 [Eh]
	 Singles Energy            =      -0.0000000000000000 [Eh]
	 Same-Spin Energy          =      -0.1728847849111271 [Eh]
	 Opposite-Spin Energy      =      -0.5334735716978737 [Eh]
	 Correlation Energy        =      -0.7063583566090008 [Eh]
	 Total Energy              =    -211.8495467168810080 [Eh]

	 ================> DF-SCS-MP2 Energies <==================
	-----------------------------------------------------------
	 SCS Same-Spin Scale       =       0.3333333333333333 [-]
	 SCS Opposite-Spin Scale   =       1.2000000000000000 [-]
	 SCS Same-Spin Energy      =      -0.0576282616370424 [Eh]
	 SCS Opposite-Spin Energy  =      -0.6401682860374484 [Eh]
	 SCS Correlation Energy    =      -0.6977965476744907 [Eh]
	 SCS Total Energy          =    -211.8409849079465062 [Eh]
	-----------------------------------------------------------

  -Total Gradient:
     Atom            X                  Y                   Z
    ------   -----------------  -----------------  -----------------
       1       -0.000055059730     0.000026342906     0.000016121193
       2        0.000000936952    -0.000005560423    -0.000017758763
       3        0.000001779026    -0.000005787106     0.000027817553
       4       -0.000010053449    -0.000023004825    -0.000000736540
       5        0.000005239185    -0.000005420472     0.000010568787
       6        0.000008608232    -0.000015363941    -0.000024143085
       7       -0.000004895284    -0.000002559410     0.000003623540
       8        0.000007277132    -0.000007011131    -0.000002574746
       9        0.000010986980    -0.000006654886    -0.000027106493
      10       -0.000001428556     0.000006585582     0.000001441631
      11        0.000009626903    -0.000001686233    -0.000004116451
      12        0.000010670010     0.000014493331     0.000022056564
      13        0.000006988348     0.000020445037    -0.000012893664
      14        0.000009324250     0.000005181570     0.000007700476

  **** Optimization is complete! (in 10 steps) ****
    Final optimized geometry and variables:
    Molecular point group: c1

    Geometry (in Angstrom), charge = 0, multiplicity = 1:

    N           -0.851383575847     0.545401576222     0.747813415726
    H           -0.352345727928     0.599592947948     1.638193413524
    C           -0.026593266302     1.207924140237    -0.269928358509
    H            0.308577012235     2.187043048549     0.082675199158
    H           -0.656712212286     1.370738247192    -1.151465407112
    C            1.128794127761     0.242758496768    -0.610932136414
    H            2.016952054235     0.488920787753    -0.021166045504
    H            1.415796771435     0.300401418793    -1.664791753657
    C            0.580896761378    -1.149189703140    -0.219935511754
    H            1.195126521620    -1.600607422633     0.565033996747
    H            0.569407550630    -1.847642807610    -1.061566673206
    C           -0.838702968673    -0.855996638817     0.310812574256
    H           -1.148362789281    -1.516734500287     1.124984603326
    H           -1.573080054265    -0.957331636962    -0.496081473508

*** Psi4 exiting successfully. Buy a developer a beer!
