 Gaussian 16, Revision A.03,
 Gaussian 16:  ES64L-G16RevA.03 25-Dec-2016

 ----------------------------------------------------------------------
 # MP2/6-31G* Geom=(AllCheck,ModRedundant) Freq NoSymm IOp(7/33=1) SCF=
 Tight Guess=Read
 ----------------------------------------------------------------------

 Structure from the checkpoint file:  "hess.chk"
 --------------------------------------------------
 <qmtool> simtype="Geometry optimization" </qmtool>
 --------------------------------------------------
 Charge =  0 Multiplicity = 1

                          Input orientation:
 ---------------------------------------------------------------------
 Center     Atomic      Atomic             Coordinates (Angstroms)
 Number     Number       Type             X           Y           Z
 ---------------------------------------------------------------------
      1          7           0        0.844181    0.456442    0.923403
      2          1           0        1.371839    0.495214    1.798219
      3          6           0        1.643365    1.125498   -0.112564
      4          1           0        1.999860    2.096522    0.242709
      5          1           0        0.986804    1.306991   -0.971285
      6          6           0        2.778837    0.153143   -0.503867
      7          1           0        3.688715    0.383823    0.059096
      8          1           0        3.031333    0.221782   -1.566240
      9          6           0        2.230618   -1.240068   -0.112042
     10          1           0        2.866331   -1.707266    0.646644
     11          1           0        2.184867   -1.927769   -0.961793
     12          6           0        0.830391   -0.941140    0.469347
     13          1           0        0.542479   -1.609020    1.286192
     14          1           0        0.068380   -1.027151   -0.313820
 ---------------------------------------------------------------------

 SCF Done:  E(RHF) =  -211.143212019     A.U. after    1 cycles
 E2 =    -0.6841394451D+00 EUMP2 =    -0.21182735146372D+03
 E2 =    -0.6841394451D+00 EUMP2 =    -0.21182735146372D+03

 Alpha  occ. eigenvalues --  -15.54076 -11.24196 -11.24194 -11.21855 -11.21800
 Alpha  occ. eigenvalues --   -1.21652  -1.01922  -0.96907  -0.81413  -0.78332
 Alpha  occ. eigenvalues --   -0.67529  -0.63697  -0.58963  -0.58388  -0.50627
 Alpha  occ. eigenvalues --   -0.49279  -0.47934  -0.47629  -0.45728  -0.37277
 Alpha virt. eigenvalues --    0.21286   0.24725   0.28662   0.29027   0.30119
 Alpha virt. eigenvalues --    0.32563   0.33860   0.33952   0.36378   0.37743
 Alpha virt. eigenvalues --    0.40784   0.41401   0.48525   0.52440   0.72775

 Mulliken charges:
               1
     1  N   -0.656565
     2  H    0.322869
     3  C   -0.156663
     4  H    0.169394
     5  H    0.168352
     6  C   -0.343412
     7  H    0.161414
     8  H    0.167763
     9  C   -0.343446
    10  H    0.161432
    11  H    0.167765
    12  C   -0.156658
    13  H    0.169392
    14  H    0.168363
 Sum of Mulliken charges =  -0.00000

 Dipole moment (field-independent basis, Debye):
    X=              1.4307    Y=             -0.5953    Z=             -0.1155  Tot=              1.5539
 Quadrupole moment (field-independent basis, Debye-Ang):
   XX=            -30.9334   YY=            -32.4273   ZZ=            -30.9322
   XY=              1.1661   XZ=              2.1606   YZ=             -0.7689

  Exact polarizability:  43.717   1.668  47.711  -0.842  -0.681  44.963
 Approx polarizability:  37.790   1.158  39.322   1.307  -0.080  41.340

 ******    1 imaginary frequencies (negative Signs) ******

                      1                      2                      3
                      A                      A                      A
 Frequencies --    -28.7693               308.3763               631.8508
 Red. masses --      1.5553                 1.7457                 1.8854
 Frc consts  --      0.0008                 0.0978                 0.4435
 IR Inten    --      0.0691                 8.2471                 1.0256

                      4                      5                      6
                      A                      A                      A
 Frequencies --    641.5459               822.3105               877.5576
 Red. masses --      2.3626                 1.3243                 1.6457
 Frc consts  --      0.5729                 0.5276                 0.7467
 IR Inten    --      1.6891                 1.9062                 0.8685

                      7                      8                      9
                      A                      A                      A
 Frequencies --    893.0201               928.4419               957.1510
 Red. masses --      1.8174                 3.1438                 2.3166
 Frc consts  --      0.8539                 1.5967                 1.2504
 IR Inten    --    115.7034                 7.9429                 0.1173

                     10                     11                     12
                      A                      A                      A
 Frequencies --    972.7606              1026.5087              1075.4277
 Red. masses --      2.5367                 1.3836                 1.3217
 Frc consts  --      1.4143                 0.8590                 0.9006
 IR Inten    --     11.5404                26.1084                 2.8589

                     13                     14                     15
                      A                      A                      A
 Frequencies --   1086.0978              1145.6864              1247.9963
 Red. masses --      1.7725                 5.0294                 1.3539
 Frc consts  --      1.2319                 3.8896                 1.2424
 IR Inten    --      0.3228                19.9712                 0.0215

                     16                     17                     18
                      A                      A                      A
 Frequencies --   1252.3088              1289.6848              1323.1694
 Red. masses --      1.3714                 1.1479                 1.4814
 Frc consts  --      1.2672                 1.1249                 1.5281
 IR Inten    --      8.2038                 3.3286                 0.3354

                     19                     20                     21
                      A                      A                      A
 Frequencies --   1336.1726              1375.5564              1379.8063
 Red. masses --      1.3552                 1.2377                 1.3131
 Frc consts  --      1.4255                 1.3798                 1.4730
 IR Inten    --      0.6759                 2.1197                 0.0021

                     22                     23                     24
                      A                      A                      A
 Frequencies --   1408.7858              1497.7275              1547.6482
 Red. masses --      1.3475                 1.1531                 1.0815
 Frc consts  --      1.5757                 1.5240                 1.5263
 IR Inten    --      3.0968                 7.1820                 0.0180

                     25                     26                     27
                      A                      A                      A
 Frequencies --   1557.3248              1561.3485              1579.4088
 Red. masses --      1.0863                 1.0924                 1.1040
 Frc consts  --      1.5523                 1.5690                 1.6225
 IR Inten    --      1.7247                 3.8430                 1.0534

                     28                     29                     30
                      A                      A                      A
 Frequencies --   3108.7002              3111.2254              3116.1168
 Red. masses --      1.0629                 1.0641                 1.0610
 Frc consts  --      6.0518                 6.0684                 6.0702
 IR Inten    --     30.1709                40.8576                27.5660

                     31                     32                     33
                      A                      A                      A
 Frequencies --   3126.4349              3162.6105              3173.3487
 Red. masses --      1.0639                 1.1049                 1.1041
 Frc consts  --      6.1270                 6.5112                 6.5508
 IR Inten    --     26.2042                12.2166                 0.3199

                     34                     35                     36
                      A                      A                      A
 Frequencies --   3180.6483              3189.2760              3497.3149
 Red. masses --      1.1067                 1.1072                 1.0744
 Frc consts  --      6.5966                 6.6354                 7.7428
 IR Inten    --     14.7533                68.1878                 0.4871

 - Thermochemistry -
 -------------------
 Temperature   298.150 Kelvin.  Pressure   1.00000 Atm.
 Atom     1 has atomic number  7 and mass  14.00307

 Molecular mass:    71.07350 amu.
 Principal axes and moments of inertia in atomic units:
                           1         2         3
     Eigenvalues --   262.11248 269.68583 461.18524
           X            0.75941   0.35420   0.54575
           Y           -0.43500   0.90018   0.02107
           Z           -0.48381  -0.25340   0.83768
 This molecule is an asymmetric top.
 Rotational symmetry number  1.
 Rotational temperatures (Kelvin)      0.33045     0.32117     0.18781
 Rotational constants (GHZ):           6.88537     6.69201     3.91327
    1 imaginary frequencies ignored.
 Zero-point vibrational energy     349245.9 (Joules/Mol)
                                   83.47177 (Kcal/Mol)
 Warning -- explicit consideration of   1 degrees of freedom as
           vibrations may cause significant error
 Vibrational temperatures:    443.68   909.09   923.04  1183.12  1262.61
          (Kelvin)           1284.86  1335.82  1377.13  1399.59  1476.92
                             1547.30  1562.65  1648.39  1795.59  1801.79
                             1855.57  1903.75  1922.45  1979.12  1985.23
                             2026.93  2154.90  2226.72  2240.64  2246.43
                             2272.42  4472.73  4476.36  4483.40  4498.24
                             4550.29  4565.74  4576.24  4588.66  5031.86

 Zero-point correction=                           0.133021 (Hartree/Particle)
 Thermal correction to Energy=                    0.137074
 Thermal correction to Enthalpy=                  0.138019
 Thermal correction to Gibbs Free Energy=         0.106094
 Sum of electronic and zero-point Energies=           -211.694331
 Sum of electronic and thermal Energies=              -211.690277
 Sum of electronic and thermal Enthalpies=            -211.689333
 Sum of electronic and thermal Free Energies=         -211.721257

                     E (Thermal)             CV                S
                      KCal/Mol        Cal/Mol-Kelvin    Cal/Mol-Kelvin
 Total                   86.016             15.087             67.191
 Electronic               0.000              0.000              0.000
 Translational            0.889              2.981             38.700
 Rotational               0.889              2.981             24.992
 Vibrational             84.238              9.126              3.498
 Vibration     1          0.698              1.658              1.371

 Optimization completed.
    -- Stationary point found.
 Normal termination of Gaussian 16 at Fri Apr  2 13:30:17 2021.
